 Entering Gaussian System, Link 0=g16
 Input=ASP_gesp.com
 Output=ASP_gesp.log
 Initial command:
 /usr/local/gaussian/gaussian16.c01-legacy/g16/l1.exe "/scratch/master9/Gau-3432052.inp" -scrdir="/scratch/master9/"
 Entering Link 1 = /usr/local/gaussian/gaussian16.c01-legacy/g16/l1.exe PID=   3432053.
  
 Copyright (c) 1988-2019, Gaussian, Inc.  All Rights Reserved.
  
 This is part of the Gaussian(R) 16 program.  It is based on
 the Gaussian(R) 09 system (copyright 2009, Gaussian, Inc.),
 the Gaussian(R) 03 system (copyright 2003, Gaussian, Inc.),
 the Gaussian(R) 98 system (copyright 1998, Gaussian, Inc.),
 the Gaussian(R) 94 system (copyright 1995, Gaussian, Inc.),
 the Gaussian 92(TM) system (copyright 1992, Gaussian, Inc.),
 the Gaussian 90(TM) system (copyright 1990, Gaussian, Inc.),
 the Gaussian 88(TM) system (copyright 1988, Gaussian, Inc.),
 the Gaussian 86(TM) system (copyright 1986, Carnegie Mellon
 University), and the Gaussian 82(TM) system (copyright 1983,
 Carnegie Mellon University). Gaussian is a federally registered
 trademark of Gaussian, Inc.
  
 This software contains proprietary and confidential information,
 including trade secrets, belonging to Gaussian, Inc.
  
 This software is provided under written license and may be
 used, copied, transmitted, or stored only in accord with that
 written license.
  
 The following legend is applicable only to US Government
 contracts under FAR:
  
                    RESTRICTED RIGHTS LEGEND
  
 Use, reproduction and disclosure by the US Government is
 subject to restrictions as set forth in subparagraphs (a)
 and (c) of the Commercial Computer Software - Restricted
 Rights clause in FAR 52.227-19.
  
 Gaussian, Inc.
 340 Quinnipiac St., Bldg. 40, Wallingford CT 06492
  
  
 ---------------------------------------------------------------
 Warning -- This program may not be used in any manner that
 competes with the business of Gaussian, Inc. or will provide
 assistance to any competitor of Gaussian, Inc.  The licensee
 of this program is prohibited from giving any competitor of
 Gaussian, Inc. access to this program.  By using this program,
 the user acknowledges that Gaussian, Inc. is engaged in the
 business of creating and licensing software in the field of
 computational chemistry and represents and warrants to the
 licensee that it is not a competitor of Gaussian, Inc. and that
 it will not use this program in any manner prohibited above.
 ---------------------------------------------------------------
  

 Cite this work as:
 Gaussian 16, Revision C.01,
 M. J. Frisch, G. W. Trucks, H. B. Schlegel, G. E. Scuseria, 
 M. A. Robb, J. R. Cheeseman, G. Scalmani, V. Barone, 
 G. A. Petersson, H. Nakatsuji, X. Li, M. Caricato, A. V. Marenich, 
 J. Bloino, B. G. Janesko, R. Gomperts, B. Mennucci, H. P. Hratchian, 
 J. V. Ortiz, A. F. Izmaylov, J. L. Sonnenberg, D. Williams-Young, 
 F. Ding, F. Lipparini, F. Egidi, J. Goings, B. Peng, A. Petrone, 
 T. Henderson, D. Ranasinghe, V. G. Zakrzewski, J. Gao, N. Rega, 
 G. Zheng, W. Liang, M. Hada, M. Ehara, K. Toyota, R. Fukuda, 
 J. Hasegawa, M. Ishida, T. Nakajima, Y. Honda, O. Kitao, H. Nakai, 
 T. Vreven, K. Throssell, J. A. Montgomery, Jr., J. E. Peralta, 
 F. Ogliaro, M. J. Bearpark, J. J. Heyd, E. N. Brothers, K. N. Kudin, 
 V. N. Staroverov, T. A. Keith, R. Kobayashi, J. Normand, 
 K. Raghavachari, A. P. Rendell, J. C. Burant, S. S. Iyengar, 
 J. Tomasi, M. Cossi, J. M. Millam, M. Klene, C. Adamo, R. Cammi, 
 J. W. Ochterski, R. L. Martin, K. Morokuma, O. Farkas, 
 J. B. Foresman, and D. J. Fox, Gaussian, Inc., Wallingford CT, 2019.
 
 ******************************************
 Gaussian 16:  EM64L-G16RevC.01  3-Jul-2019
                 5-Feb-2024 
 ******************************************
 %chk=ASP__gesp
 ----------------------------------------------------------------------
 #HF/6-31G* scrf=smd SCF=tight Test Pop=MK iop(6/33=2) iop(6/42=6) # io
 p(6/50=1)
 ----------------------------------------------------------------------
 1/38=1,172=1/1;
 2/12=2,17=6,18=5,40=1/2;
 3/5=1,6=6,7=1,11=9,25=1,30=1,70=32201/1,2,3;
 4//1;
 5/5=2,32=2,38=5/2;
 6/7=2,8=2,9=2,10=2,15=8,20=1,28=1,33=2,42=6,50=1/1,2;
 99/5=1,9=1/99;
 -----------------
 calc RESP charges
 -----------------
 Symbolic Z-matrix:
 Charge = -1 Multiplicity = 1
 C                     1.93437  -0.0685    0.09159 
 O                     2.1849    0.87309   0.78953 
 O                     2.94041  -0.74307  -0.45138 
 H                     2.63676  -1.47261  -0.98553 
 C                     0.5545   -0.59108  -0.20632 
 C                    -0.56623   0.34269   0.23062 
 H                     0.47617  -1.54469   0.30257 
 H                     0.48852  -0.79039  -1.27105 
 N                    -0.51437   1.58404  -0.53075 
 H                     0.21857   2.1622   -0.16723 
 H                    -1.37329   2.07646  -0.38474 
 C                    -1.94092  -0.3299    0.08782 
 H                    -0.45729   0.51826   1.30101 
 O                    -2.90241   0.39671  -0.21066 
 O                    -2.00779  -1.54633   0.33474 
 
                          Input orientation:                          
 ---------------------------------------------------------------------
 Center     Atomic      Atomic             Coordinates (Angstroms)
 Number     Number       Type             X           Y           Z
 ---------------------------------------------------------------------
      1          6           0        1.934372   -0.068501    0.091594
      2          8           0        2.184896    0.873093    0.789534
      3          8           0        2.940405   -0.743066   -0.451375
      4          1           0        2.636755   -1.472609   -0.985525
      5          6           0        0.554500   -0.591077   -0.206322
      6          6           0       -0.566234    0.342687    0.230624
      7          1           0        0.476166   -1.544690    0.302571
      8          1           0        0.488516   -0.790390   -1.271046
      9          7           0       -0.514371    1.584038   -0.530754
     10          1           0        0.218569    2.162204   -0.167229
     11          1           0       -1.373290    2.076458   -0.384744
     12          6           0       -1.940918   -0.329898    0.087821
     13          1           0       -0.457291    0.518258    1.301005
     14          8           0       -2.902408    0.396705   -0.210655
     15          8           0       -2.007787   -1.546327    0.334741
 ---------------------------------------------------------------------
                    Distance matrix (angstroms):
                    1          2          3          4          5
     1  C    0.000000
     2  O    1.198533   0.000000
     3  O    1.327387   2.173159   0.000000
     4  H    1.903955   2.976126   0.953809   0.000000
     5  C    1.505286   2.407014   2.403267   2.391661   0.000000
     6  C    2.537998   2.856996   3.733698   3.877300   1.522787
     7  H    2.085668   3.000428   2.698798   2.516452   1.083737
     8  H    2.113862   3.144975   2.585703   2.271976   1.085227
     9  N    3.019030   3.087822   4.166196   4.413559   2.445172
    10  H    2.826131   2.538433   3.991206   4.441745   2.773974
    11  H    3.970941   3.935442   5.153845   5.388625   3.296051
    12  C    3.884098   4.354530   4.928362   4.838693   2.526231
    13  H    2.743540   2.714528   4.025682   4.331846   2.127529
    14  O    4.868492   5.206533   5.957809   5.897210   3.595267
    15  O    4.217073   4.861998   5.074230   4.829110   2.787574
                    6          7          8          9         10
     6  C    0.000000
     7  H    2.157305   0.000000
     8  H    2.156704   1.745105   0.000000
     9  N    1.457168   3.385932   2.681739   0.000000
    10  H    2.021100   3.745415   3.163715   1.001812   0.000000
    11  H    2.008975   4.123785   3.531384   1.000769   1.608938
    12  C    1.537049   2.713693   2.821475   2.465932   3.307417
    13  H    1.090142   2.474665   3.036866   2.120020   2.305441
    14  O    2.378099   3.930290   3.745930   2.686065   3.585996
    15  O    2.378506   2.484162   3.062927   3.574711   4.354519
                   11         12         13         14         15
    11  H    0.000000
    12  C    2.517155   0.000000
    13  H    2.471597   2.095789   0.000000
    14  O    2.278174   1.241573   2.877236   0.000000
    15  O    3.747641   1.243037   2.756849   2.207527   0.000000
 Stoichiometry    C4H6NO4(1-)
 Framework group  C1[X(C4H6NO4)]
 Deg. of freedom    39
 Full point group                 C1      NOp   1
 Largest Abelian subgroup         C1      NOp   1
 Largest concise Abelian subgroup C1      NOp   1
                         Standard orientation:                         
 ---------------------------------------------------------------------
 Center     Atomic      Atomic             Coordinates (Angstroms)
 Number     Number       Type             X           Y           Z
 ---------------------------------------------------------------------
      1          6           0        1.934372   -0.068501    0.091594
      2          8           0        2.184896    0.873093    0.789534
      3          8           0        2.940405   -0.743066   -0.451375
      4          1           0        2.636755   -1.472609   -0.985525
      5          6           0        0.554500   -0.591077   -0.206322
      6          6           0       -0.566234    0.342687    0.230624
      7          1           0        0.476166   -1.544690    0.302571
      8          1           0        0.488516   -0.790390   -1.271046
      9          7           0       -0.514371    1.584038   -0.530754
     10          1           0        0.218569    2.162204   -0.167229
     11          1           0       -1.373290    2.076458   -0.384744
     12          6           0       -1.940918   -0.329898    0.087821
     13          1           0       -0.457291    0.518258    1.301005
     14          8           0       -2.902408    0.396705   -0.210655
     15          8           0       -2.007787   -1.546327    0.334741
 ---------------------------------------------------------------------
 Rotational constants (GHZ):           3.5130047           0.9179915           0.7856077
 Standard basis: 6-31G(d) (6D, 7F)
 There are   147 symmetry adapted cartesian basis functions of A   symmetry.
 There are   147 symmetry adapted basis functions of A   symmetry.
   147 basis functions,   276 primitive gaussians,   147 cartesian basis functions
    35 alpha electrons       35 beta electrons
       nuclear repulsion energy       453.2784880576 Hartrees.
 NAtoms=   15 NActive=   15 NUniq=   15 SFac= 1.00D+00 NAtFMM=   60 NAOKFM=F Big=F
 Integral buffers will be    131072 words long.
 Raffenetti 1 integral format.
 Two-electron integral symmetry is turned on.
 ------------------------------------------------------------------------------
 Polarizable Continuum Model (PCM)
 =================================
 Model                : PCM.
 Atomic radii         : SMD-Coulomb.
 Polarization charges : Total charges.
 Charge compensation  : None.
 Solution method      : On-the-fly selection.
 Cavity type          : VdW (van der Waals Surface) (Alpha=1.000).
 Cavity algorithm     : GePol (No added spheres)
                        Default sphere list used, NSphG=   15.
                        Lebedev-Laikov grids with approx.  5.0 points / Ang**2.
                        Smoothing algorithm: York/Karplus (Gamma=1.0000).
                        Polarization charges: spherical gaussians, with
                                              point-specific exponents (IZeta= 3).
                        Self-potential: point-specific (ISelfS= 7).
                        Self-field    : sphere-specific E.n sum rule (ISelfD= 2).
 Solvent              : Water, Eps=  78.355300 Eps(inf)=   1.777849
 ------------------------------------------------------------------------------
 Spheres list:
 ISph  on   Nord     Re0    Alpha      Xe            Ye            Ze
    1   C      1    1.8500  1.000      1.934372     -0.068501      0.091594
    2   O      2    1.5200  1.000      2.184896      0.873093      0.789534
    3   O      3    1.5200  1.000      2.940405     -0.743066     -0.451375
    4   H      4    1.2000  1.000      2.636755     -1.472609     -0.985525
    5   C      5    1.8500  1.000      0.554500     -0.591077     -0.206322
    6   C      6    1.8500  1.000     -0.566234      0.342687      0.230624
    7   H      7    1.2000  1.000      0.476166     -1.544690      0.302571
    8   H      8    1.2000  1.000      0.488516     -0.790390     -1.271046
    9   N      9    1.8900  1.000     -0.514371      1.584038     -0.530754
   10   H     10    1.2000  1.000      0.218569      2.162204     -0.167229
   11   H     11    1.2000  1.000     -1.373290      2.076458     -0.384744
   12   C     12    1.8500  1.000     -1.940918     -0.329898      0.087821
   13   H     13    1.2000  1.000     -0.457291      0.518258      1.301005
   14   O     14    1.5200  1.000     -2.902408      0.396705     -0.210655
   15   O     15    1.5200  1.000     -2.007787     -1.546327      0.334741
 ------------------------------------------------------------------------------
 ------------------------------------------------------------------------------
 Atomic radii for non-electrostatic terms: SMD-CDS.
 ------------------------------------------------------------------------------
 Nuclear repulsion after PCM non-electrostatic terms =      453.2864307973 Hartrees.
 One-electron integrals computed using PRISM.
 NBasis=   147 RedAO= T EigKep=  2.33D-03  NBF=   147
 NBsUse=   147 1.00D-06 EigRej= -1.00D+00 NBFU=   147
 ExpMin= 1.61D-01 ExpMax= 5.48D+03 ExpMxC= 8.25D+02 IAcc=3 IRadAn=         5 AccDes= 0.00D+00
 Harris functional with IExCor=  205 and IRadAn=       5 diagonalized for initial guess.
 HarFok:  IExCor=  205 AccDes= 0.00D+00 IRadAn=         5 IDoV= 1 UseB2=F ITyADJ=14
 ICtDFT=  3500011 ScaDFX=  1.000000  1.000000  1.000000  1.000000
 FoFCou: FMM=F IPFlag=           0 FMFlag=      100000 FMFlg1=           0
         NFxFlg=           0 DoJE=T BraDBF=F KetDBF=T FulRan=T
         wScrn=  0.000000 ICntrl=       500 IOpCl=  0 I1Cent=   200000004 NGrid=           0
         NMat0=    1 NMatS0=      1 NMatT0=    0 NMatD0=    1 NMtDS0=    0 NMtDT0=    0
 Petite list used in FoFCou.
 Keep R1 ints in memory in canonical form, NReq=60793073.
 Requested convergence on RMS density matrix=1.00D-08 within 128 cycles.
 Requested convergence on MAX density matrix=1.00D-06.
 Requested convergence on             energy=1.00D-06.
 No special actions if energy rises.
 Inv3:  Mode=1 IEnd=     3864675.
 Iteration    1 A*A^-1 deviation from unit magnitude is 5.11D-15 for     63.
 Iteration    1 A*A^-1 deviation from orthogonality  is 2.27D-15 for    928    534.
 Iteration    1 A^-1*A deviation from unit magnitude is 5.11D-15 for    551.
 Iteration    1 A^-1*A deviation from orthogonality  is 3.79D-14 for    921    880.
 Error on total polarization charges =  0.03134
 SCF Done:  E(RHF) =  -509.040332667     A.U. after   13 cycles
            NFock= 13  Conv=0.91D-08     -V/T= 2.0019
 SMD-CDS (non-electrostatic) energy       (kcal/mol) =       4.98
 (included in total energy above)
 SCF density gives NOpUse=  1 NOpAll=  1.

 **********************************************************************

            Population analysis using the SCF Density.

 **********************************************************************

 Orbital symmetries:
 BldTbl:  Degeneracy threshold= 1.00D-02
       Occupied  (A) (A) (A) (A) (A) (A) (A) (A) (A) (A) (A) (A)
                 (A) (A) (A) (A) (A) (A) (A) (A) (A) (A) (A) (A)
                 (A) (A) (A) (A) (A) (A) (A) (A) (A) (A) (A)
       Virtual   (A) (A) (A) (A) (A) (A) (A) (A) (A) (A) (A) (A)
                 (A) (A) (A) (A) (A) (A) (A) (A) (A) (A) (A) (A)
                 (A) (A) (A) (A) (A) (A) (A) (A) (A) (A) (A) (A)
                 (A) (A) (A) (A) (A) (A) (A) (A) (A) (A) (A) (A)
                 (A) (A) (A) (A) (A) (A) (A) (A) (A) (A) (A) (A)
                 (A) (A) (A) (A) (A) (A) (A) (A) (A) (A) (A) (A)
                 (A) (A) (A) (A) (A) (A) (A) (A) (A) (A) (A) (A)
                 (A) (A) (A) (A) (A) (A) (A) (A) (A) (A) (A) (A)
                 (A) (A) (A) (A) (A) (A) (A) (A) (A) (A) (A) (A)
                 (A) (A) (A) (A)
 The electronic state is 1-A.
 Alpha  occ. eigenvalues --  -20.61245 -20.55600 -20.49234 -20.49057 -15.52603
 Alpha  occ. eigenvalues --  -11.38936 -11.32693 -11.24502 -11.22786  -1.47215
 Alpha  occ. eigenvalues --   -1.37957  -1.36989  -1.26976  -1.17668  -1.02926
 Alpha  occ. eigenvalues --   -0.89367  -0.83063  -0.71439  -0.70931  -0.67223
 Alpha  occ. eigenvalues --   -0.66582  -0.65897  -0.62411  -0.60260  -0.58492
 Alpha  occ. eigenvalues --   -0.56847  -0.55395  -0.51584  -0.50944  -0.48435
 Alpha  occ. eigenvalues --   -0.45507  -0.40723  -0.40322  -0.39697  -0.38005
 Alpha virt. eigenvalues --    0.19019   0.23405   0.25063   0.27653   0.30959
 Alpha virt. eigenvalues --    0.32786   0.34200   0.36230   0.41508   0.43330
 Alpha virt. eigenvalues --    0.47311   0.49357   0.49815   0.54106   0.61204
 Alpha virt. eigenvalues --    0.64560   0.74924   0.78316   0.79075   0.82446
 Alpha virt. eigenvalues --    0.86123   0.87534   0.89175   0.92324   0.95819
 Alpha virt. eigenvalues --    0.96388   0.98171   0.98821   1.00373   1.03889
 Alpha virt. eigenvalues --    1.05031   1.09527   1.09956   1.11916   1.13843
 Alpha virt. eigenvalues --    1.17234   1.19739   1.21368   1.22576   1.23364
 Alpha virt. eigenvalues --    1.24545   1.26013   1.28449   1.30572   1.32001
 Alpha virt. eigenvalues --    1.35692   1.37410   1.39548   1.41069   1.45053
 Alpha virt. eigenvalues --    1.47826   1.54528   1.61139   1.66741   1.67714
 Alpha virt. eigenvalues --    1.75189   1.77002   1.80999   1.85018   1.91543
 Alpha virt. eigenvalues --    1.95076   1.98563   2.01202   2.04403   2.05452
 Alpha virt. eigenvalues --    2.07432   2.11059   2.11986   2.14362   2.16732
 Alpha virt. eigenvalues --    2.19080   2.21394   2.21924   2.26006   2.27404
 Alpha virt. eigenvalues --    2.30028   2.33085   2.34589   2.35897   2.42726
 Alpha virt. eigenvalues --    2.45994   2.51170   2.52474   2.61038   2.68153
 Alpha virt. eigenvalues --    2.76682   2.81024   2.82308   2.84984   2.87546
 Alpha virt. eigenvalues --    2.91455   2.97465   3.00965   3.04059   3.08657
 Alpha virt. eigenvalues --    3.14141   3.22966   3.28203   3.30320   3.36373
 Alpha virt. eigenvalues --    3.41160   3.50210   3.58036   4.23346   4.28585
 Alpha virt. eigenvalues --    4.34749   4.54738   4.60111   4.74906   4.83436
 Alpha virt. eigenvalues --    4.91100   5.07388
          Condensed to atoms (all electrons):
               1          2          3          4          5          6
     1  C    4.035505   0.581545   0.304398  -0.018058   0.371173  -0.043522
     2  O    0.581545   8.224012  -0.080197   0.002985  -0.090016   0.007497
     3  O    0.304398  -0.080197   8.339895   0.257912  -0.085277   0.003357
     4  H   -0.018058   0.002985   0.257912   0.229038   0.002210   0.000125
     5  C    0.371173  -0.090016  -0.085277   0.002210   5.404068   0.279112
     6  C   -0.043522   0.007497   0.003357   0.000125   0.279112   5.236391
     7  H   -0.028601   0.000846   0.000306  -0.000095   0.370069  -0.030557
     8  H   -0.029267   0.001602   0.001030   0.000761   0.373004  -0.033696
     9  N   -0.002556  -0.003045  -0.000139  -0.000007  -0.075738   0.237377
    10  H    0.001118   0.007321   0.000024  -0.000010  -0.004629  -0.027416
    11  H   -0.000069   0.000068   0.000002   0.000000   0.006004  -0.037217
    12  C    0.002351   0.000113  -0.000036  -0.000010  -0.037425   0.361397
    13  H   -0.003728   0.003518   0.000047  -0.000005  -0.052533   0.398884
    14  O   -0.000063  -0.000000   0.000000   0.000000   0.002111  -0.118479
    15  O    0.000335   0.000001  -0.000000   0.000001   0.004502  -0.128879
               7          8          9         10         11         12
     1  C   -0.028601  -0.029267  -0.002556   0.001118  -0.000069   0.002351
     2  O    0.000846   0.001602  -0.003045   0.007321   0.000068   0.000113
     3  O    0.000306   0.001030  -0.000139   0.000024   0.000002  -0.000036
     4  H   -0.000095   0.000761  -0.000007  -0.000010   0.000000  -0.000010
     5  C    0.370069   0.373004  -0.075738  -0.004629   0.006004  -0.037425
     6  C   -0.030557  -0.033696   0.237377  -0.027416  -0.037217   0.361397
     7  H    0.446361  -0.013952   0.003477  -0.000115  -0.000100  -0.002866
     8  H   -0.013952   0.465638   0.005716  -0.000113  -0.000110  -0.003062
     9  N    0.003477   0.005716   7.188600   0.322715   0.322199  -0.044347
    10  H   -0.000115  -0.000113   0.322715   0.358251  -0.021483   0.003678
    11  H   -0.000100  -0.000110   0.322199  -0.021483   0.350992  -0.006827
    12  C   -0.002866  -0.003062  -0.044347   0.003678  -0.006827   3.940544
    13  H    0.002156   0.004271  -0.042389  -0.003512   0.000200  -0.029737
    14  O    0.000226   0.000099  -0.005729   0.000119   0.020003   0.525193
    15  O    0.010782   0.001068   0.002301  -0.000081   0.000434   0.498661
              13         14         15
     1  C   -0.003728  -0.000063   0.000335
     2  O    0.003518  -0.000000   0.000001
     3  O    0.000047   0.000000  -0.000000
     4  H   -0.000005   0.000000   0.000001
     5  C   -0.052533   0.002111   0.004502
     6  C    0.398884  -0.118479  -0.128879
     7  H    0.002156   0.000226   0.010782
     8  H    0.004271   0.000099   0.001068
     9  N   -0.042389  -0.005729   0.002301
    10  H   -0.003512   0.000119  -0.000081
    11  H    0.000200   0.020003   0.000434
    12  C   -0.029737   0.525193   0.498661
    13  H    0.528486   0.000145   0.002063
    14  O    0.000145   8.499905  -0.093948
    15  O    0.002063  -0.093948   8.534373
 Mulliken charges:
               1
     1  C    0.829441
     2  O   -0.656251
     3  O   -0.741322
     4  H    0.525153
     5  C   -0.466635
     6  C   -0.104374
     7  H    0.242064
     8  H    0.227010
     9  N   -0.908436
    10  H    0.364134
    11  H    0.365903
    12  C    0.792372
    13  H    0.192133
    14  O   -0.829580
    15  O   -0.831612
 Sum of Mulliken charges =  -1.00000
 Mulliken charges with hydrogens summed into heavy atoms:
               1
     1  C    0.829441
     2  O   -0.656251
     3  O   -0.216169
     5  C    0.002439
     6  C    0.087758
     9  N   -0.178400
    12  C    0.792372
    14  O   -0.829580
    15  O   -0.831612
 DipInt: DoE/N= T F RetVal/Mat= T F Init=T NMatP=  1 IDeriv=0 Min/MaxMlt=  0  4
 Entering OneElI...
 OneElI was handed   104799762 working-precision words.
 Multipole integrals L=0 to 4 MinM= 0 MaxM= 0.
 Requested accuracy = 0.1000D-12
 ShPair: Thresh= 1.00D-13 NBox=     0 BxSize= 0.00D+00 RnKept= 1.13D+01
         NSMCal=                 1176 NSMKep=                1093
 PrmmSu-InSpLW:  IPartL=    0 NPrtUS=    1 NPrtUL=    1 DoSpLW=F IThBeg=    0 IThEnd=    0 NThAct=    1.
 PrSmSu:  IncTry=   512 NBBP=           1093 NTPThr=   100 NPartT=    1 Incr=          10 LDynOK=F GPUOK=F.
 PrsmSu:  NPrtUS=   1 ThrOK=F IAlg=2 LenDen=           0 ISkipM=0 DoSpLW=F IThBeg=    0 IThEnd=    0.
 Prism:   IPart=     0 DynPar=F LinDyn=F Incr=          10.
 PRISM was handed   104691958 working-precision words and  1093 shell-pairs
 IPart=  0 NShTot=        1093 NBatch=          47 AvBLen=        23.3
 PrsmSu-ThDecC:  IPartSL=    0    0 NPrtUSL=    1    1 IThBeg=    0 IThEnd=    0 CPU=   -1 GPU=   -1 NThAct=    1.
 PrSmSu:  NxtVal=             11.
 Electronic moments (au):
        -70.00000000          3.85426554         -0.22786619         -0.58080972
      -1028.59863036       -279.65664468        -94.03109912        -11.36806376
         -5.74388825          3.83919568       -178.98931734        -57.26019478
        -11.74600507        192.77861048        357.65320750         43.95989160
        -88.23181734        -35.66888250         24.31541626       -265.78659758
     -26135.08438304      -2750.83209276       -428.12218383        874.29484832
        181.48530986       -484.61411251        315.32986770        -63.23769967
        -41.03732156      -3142.71184576      -1269.00584630       -416.81967205
       -391.33514880         57.66844413        -54.19035632
 Electronic spatial extent (au):  <R**2>=           1402.2864
 DipInt: DoE/N= F T RetVal/Mat= T F Init=T NMatP=  1 IDeriv=0 Min/MaxMlt=  0  4
 Nuclear    moments (au):
         69.00000000         -0.00000000         -0.00000000          0.00000000
        954.31162088        237.06336655         53.77404080         -0.00000000
         -0.00002855         -0.00000440        275.96814782         76.91207447
         10.57739443       -155.85632619       -366.62414717        -60.03367725
         96.06333427         22.65590007        -32.89024831        259.31783166
      21691.04007024       1903.81602199        135.05455316      -1012.44328718
       -300.13969612        314.16980502       -268.95508191         26.50974224
         75.11529782       2388.32217952        680.49188116        210.90263843
        434.41651611        -86.77106878         16.88919734
 Total      moments (au):
         -1.00000000          3.85426554         -0.22786619         -0.58080972
        -74.28700948        -42.59327812        -40.25705832        -11.36806376
         -5.74391680          3.83919128         96.97883047         19.65187969
         -1.16861065         36.92228429         -8.97093967        -16.07378565
          7.83151694        -13.01298243         -8.57483205         -6.46876592
      -4444.04431279       -847.01607077       -293.06763067       -138.14843886
       -118.65438626       -170.44430749         46.37478579        -36.72795743
         34.07797627       -754.38966624       -588.51396514       -205.91703363
         43.08136731        -29.10262465        -37.30115898
 Traceless Quadrup. (au):
        -21.90789417          9.78583718         12.12205699        -11.36806376
         -5.74391680          3.83919128
 Charge=             -1.0000 electrons
 Dipole moment (field-independent basis, Debye):
    X=              9.7966    Y=             -0.5792    Z=             -1.4763  Tot=              9.9241
 Quadrupole moment (field-independent basis, Debye-Ang):
   XX=            -99.9186   YY=            -57.2894   ZZ=            -54.1471
   XY=            -15.2904   XZ=             -7.7258   YZ=              5.1638
 Traceless Quadrupole moment (field-independent basis, Debye-Ang):
   XX=            -29.4669   YY=             13.1623   ZZ=             16.3046
   XY=            -15.2904   XZ=             -7.7258   YZ=              5.1638
 Octapole moment (field-independent basis, Debye-Ang**2):
  XXX=             69.0258  YYY=             13.9875  ZZZ=             -0.8318  XYY=             26.2799
  XXY=             -6.3852  XXZ=            -11.4407  XZZ=              5.5742  YZZ=             -9.2621
  YYZ=             -6.1032  XYZ=             -4.6042
 Hexadecapole moment (field-independent basis, Debye-Ang**3):
 XXXX=          -1673.8402 YYYY=           -319.0269 ZZZZ=           -110.3833 XXXY=            -52.0333
 XXXZ=            -44.6909 YYYX=            -64.1975 YYYZ=             17.4670 ZZZX=            -13.8335
 ZZZY=             12.8354 XXYY=           -284.1393 XXZZ=           -221.6626 YYZZ=            -77.5582
 XXYZ=             16.2265 YYXZ=            -10.9614 ZZXY=            -14.0494
 N-N= 4.532864307973D+02 E-N=-2.119094517128D+03  KE= 5.080568511501D+02
 Entering OneElI...
 OneElI was handed   104810103 working-precision words.
 Calculate electrostatic properties
    NBasis =   147  MinDer = 0  MaxDer = 0
    NGrid  =    15  NMatD  =   1
 Requested accuracy = 0.1000D-12
 ShPair: Thresh= 1.00D-13 NBox=     0 BxSize= 0.00D+00 RnKept= 1.13D+01
         NSMCal=                 1176 NSMKep=                1055
 PrmmSu-InSpLW:  IPartL=    0 NPrtUS=    1 NPrtUL=    1 DoSpLW=F IThBeg=    0 IThEnd=    0 NThAct=    1.
 PrSmSu:  IncTry=   512 NBBP=          15825 NTPThr=   100 NPartT=    1 Incr=         158 LDynOK=F GPUOK=F.
 PrsmSu:  NPrtUS=   1 ThrOK=F IAlg=2 LenDen=           0 ISkipM=0 DoSpLW=F IThBeg=    0 IThEnd=    0.
 Prism:   IPart=     0 DynPar=F LinDyn=F Incr=         158.
 PRISM was handed   104707698 working-precision words and  1055 shell-pairs
 IPart=  0 NShTot=       15825 NBatch=        1055 AvBLen=        15.0
 PrsmSu-ThDecC:  IPartSL=    0    0 NPrtUSL=    1    1 IThBeg=    0 IThEnd=    0 CPU=   -1 GPU=   -1 NThAct=    1.
 PrSmSu:  NxtVal=            159.
 --------------------------------------------------------
       Center         ----      EFG at Nuclei      ----
                      3XX-RR        3YY-RR        3ZZ-RR
 --------------------------------------------------------
     1   Atom        0.317180     -0.025423     -0.291757
     2   Atom        1.499626     -0.760872     -0.738755
     3   Atom        0.127269     -0.398523      0.271254
     4   Atom        0.141696     -0.170739      0.029043
     5   Atom       -0.095074      0.048938      0.046136
     6   Atom        0.067488     -0.105051      0.037563
     7   Atom        0.150486     -0.202881      0.052395
     8   Atom        0.136993      0.149003     -0.285996
     9   Atom       -0.348567     -0.502907      0.851474
    10   Atom       -0.128977     -0.024756      0.153733
    11   Atom       -0.251538      0.028361      0.223177
    12   Atom        0.299575      0.265008     -0.564583
    13   Atom        0.148563      0.131825     -0.280388
    14   Atom       -0.153179      0.492220     -0.339041
    15   Atom        1.329910     -1.040285     -0.289626
 --------------------------------------------------------
                        XY            XZ            YZ
 --------------------------------------------------------
     1   Atom        0.197563      0.110054      0.428354
     2   Atom       -0.344579     -0.336294      0.001589
     3   Atom        0.430350      0.373045     -1.178607
     4   Atom       -0.166114     -0.119920     -0.319135
     5   Atom       -0.045475     -0.029426     -0.026622
     6   Atom        0.037559      0.045477      0.104268
     7   Atom       -0.022509      0.016693      0.191460
     8   Atom       -0.000471     -0.028053     -0.086491
     9   Atom       -0.050194     -0.189927      0.370221
    10   Atom       -0.257449     -0.177376     -0.123964
    11   Atom        0.268474      0.082497     -0.035936
    12   Atom        0.041446      0.131241     -0.183224
    13   Atom       -0.003063     -0.040486     -0.070457
    14   Atom        1.146292     -0.213892     -0.010546
    15   Atom       -0.110857      0.257109      0.146279
 --------------------------------------------------------


 ---------------------------------------------------------------------------------
              Nuclear Quadrupole Coupling Constant in Principal Axis System
 ---------------------------------------------------------------------------------

       Atom             a.u.   MegaHertz   Gauss  10(-4) cm-1        Axes

              Baa    -0.5975     2.870     1.024     0.957  0.0072  0.9691 -0.2467
     9 N(14)  Bbb    -0.3777     1.814     0.647     0.605  0.9891  0.0293  0.1440
              Bcc     0.9752    -4.684    -1.671    -1.562 -0.1468  0.2450  0.9583
 

 ---------------------------------------------------------------------------------

 No NMR shielding tensors so no spin-rotation constants.
 Leave Link  601 at Mon Feb  5 16:17:03 2024, MaxMem=   104857600 cpu:               0.1 elap:               0.2
 FitSet:  NAtFit=    15 NAtPot=    15 NAtFrz=     0 MDM=    19 TotChg=  -1.00000
 Merz-Kollman atomic radii used.
 Atom Element Radius
    1     6    1.50
    2     8    1.40
    3     8    1.40
    4     1    1.20
    5     6    1.50
    6     6    1.50
    7     1    1.20
    8     1    1.20
    9     7    1.50
   10     1    1.20
   11     1    1.20
   12     6    1.50
   13     1    1.20
   14     8    1.40
   15     8    1.40
 Generate VDW surfaces: Layer= 4 Dens= 6 Start= 1.400 Inc= 0.200

 **********************************************************************

            Electrostatic Properties Using The SCF Density.

 **********************************************************************

       Atomic Center    1 is at   1.934372 -0.068501  0.091594
       Atomic Center    2 is at   2.184896  0.873093  0.789534
       Atomic Center    3 is at   2.940405 -0.743066 -0.451375
       Atomic Center    4 is at   2.636755 -1.472609 -0.985525
       Atomic Center    5 is at   0.554500 -0.591077 -0.206322
       Atomic Center    6 is at  -0.566234  0.342687  0.230624
       Atomic Center    7 is at   0.476166 -1.544690  0.302571
       Atomic Center    8 is at   0.488516 -0.790390 -1.271046
       Atomic Center    9 is at  -0.514371  1.584038 -0.530754
       Atomic Center   10 is at   0.218569  2.162204 -0.167229
       Atomic Center   11 is at  -1.373290  2.076458 -0.384744
       Atomic Center   12 is at  -1.940918 -0.329898  0.087821
       Atomic Center   13 is at  -0.457291  0.518258  1.301005
       Atomic Center   14 is at  -2.902408  0.396705 -0.210655
       Atomic Center   15 is at  -2.007787 -1.546327  0.334741
      ESP Fit Center   16 is at   1.238404 -0.470319  2.031741
      ESP Fit Center   17 is at   1.532554 -0.764469  2.031741
      ESP Fit Center   18 is at   1.934372 -0.872136  2.031741
      ESP Fit Center   19 is at   2.336190 -0.764469  2.031741
      ESP Fit Center   20 is at   1.231280 -0.999546  1.837680
      ESP Fit Center   21 is at   1.615090 -1.190661  1.837680
      ESP Fit Center   22 is at   2.042021 -1.230222  1.837680
      ESP Fit Center   23 is at   2.454414 -1.112886  1.837680
      ESP Fit Center   24 is at   2.796572 -0.854500  1.837680
      ESP Fit Center   25 is at   1.723045 -1.538311  1.576518
      ESP Fit Center   26 is at   2.145699 -1.538311  1.576518
      ESP Fit Center   27 is at   2.551232 -1.419236  1.576518
      ESP Fit Center   28 is at   2.906791 -1.190732  1.576518
      ESP Fit Center   29 is at   3.183570 -0.871312  1.576518
      ESP Fit Center   30 is at   3.359146 -0.486852  1.576518
      ESP Fit Center   31 is at   2.144839 -1.801856  1.258291
      ESP Fit Center   32 is at   2.553543 -1.701120  1.258291
      ESP Fit Center   33 is at   2.039410 -2.005803  0.895229
      ESP Fit Center   34 is at   2.926262  1.368500 -1.075104
      ESP Fit Center   35 is at   2.553543  1.564118 -1.075104
      ESP Fit Center   36 is at   2.144839  1.664854 -1.075104
      ESP Fit Center   37 is at   1.723905  1.664854 -1.075104
      ESP Fit Center   38 is at   2.906791  1.053730 -1.393330
      ESP Fit Center   39 is at   2.551232  1.282234 -1.393330
      ESP Fit Center   40 is at   2.145699  1.401309 -1.393330
      ESP Fit Center   41 is at   1.723045  1.401309 -1.393330
      ESP Fit Center   42 is at   2.454414  0.975884 -1.654492
      ESP Fit Center   43 is at   2.042021  1.093220 -1.654492
      ESP Fit Center   44 is at   1.615090  1.053659 -1.654492
      ESP Fit Center   45 is at   1.231280  0.862544 -1.654492
      ESP Fit Center   46 is at   2.336190  0.627468 -1.848553
      ESP Fit Center   47 is at   1.934372  0.735134 -1.848553
      ESP Fit Center   48 is at   1.532554  0.627468 -1.848553
      ESP Fit Center   49 is at   2.139217  0.286301 -1.968055
      ESP Fit Center   50 is at   1.729527  0.286301 -1.968055
      ESP Fit Center   51 is at   1.934372 -0.068501 -2.008406
      ESP Fit Center   52 is at   2.184896  0.873093  2.749534
      ESP Fit Center   53 is at   2.592403  0.873093  2.706703
      ESP Fit Center   54 is at   2.388649  1.226004  2.706703
      ESP Fit Center   55 is at   1.981143  1.226004  2.706703
      ESP Fit Center   56 is at   1.777389  0.873093  2.706703
      ESP Fit Center   57 is at   1.981143  0.520182  2.706703
      ESP Fit Center   58 is at   2.388649  0.520182  2.706703
      ESP Fit Center   59 is at   2.982100  0.873093  2.580083
      ESP Fit Center   60 is at   2.875295  1.271695  2.580083
      ESP Fit Center   61 is at   2.583498  1.563492  2.580083
      ESP Fit Center   62 is at   2.184896  1.670297  2.580083
      ESP Fit Center   63 is at   1.786294  1.563492  2.580083
      ESP Fit Center   64 is at   1.494497  1.271695  2.580083
      ESP Fit Center   65 is at   1.387692  0.873093  2.580083
      ESP Fit Center   66 is at   1.494497  0.474491  2.580083
      ESP Fit Center   67 is at   1.786294  0.182694  2.580083
      ESP Fit Center   68 is at   2.184896  0.075889  2.580083
      ESP Fit Center   69 is at   2.583498  0.182694  2.580083
      ESP Fit Center   70 is at   2.875295  0.474491  2.580083
      ESP Fit Center   71 is at   3.336955  0.873093  2.375207
      ESP Fit Center   72 is at   3.259159  1.289265  2.375207
      ESP Fit Center   73 is at   3.036278  1.649230  2.375207
      ESP Fit Center   74 is at   2.698413  1.904374  2.375207
      ESP Fit Center   75 is at   2.291195  2.020238  2.375207
      ESP Fit Center   76 is at   1.869620  1.981173  2.375207
      ESP Fit Center   77 is at   1.490625  1.792456  2.375207
      ESP Fit Center   78 is at   1.205396  1.479574  2.375207
      ESP Fit Center   79 is at   1.052453  1.084783  2.375207
      ESP Fit Center   80 is at   1.052453  0.661403  2.375207
      ESP Fit Center   81 is at   1.205396  0.266612  2.375207
      ESP Fit Center   82 is at   1.490625 -0.046270  2.375207
      ESP Fit Center   83 is at   1.869620 -0.234987  2.375207
      ESP Fit Center   84 is at   2.291195 -0.274052  2.375207
      ESP Fit Center   85 is at   2.698413 -0.158188  2.375207
      ESP Fit Center   86 is at   3.036278  0.096956  2.375207
      ESP Fit Center   87 is at   3.259159  0.456921  2.375207
      ESP Fit Center   88 is at   3.641460  0.873093  2.101030
      ESP Fit Center   89 is at   3.582459  1.283454  2.101030
      ESP Fit Center   90 is at   3.410236  1.660571  2.101030
      ESP Fit Center   91 is at   3.138743  1.973891  2.101030
      ESP Fit Center   92 is at   2.789975  2.198030  2.101030
      ESP Fit Center   93 is at   2.392187  2.314831  2.101030
      ESP Fit Center   94 is at   1.977605  2.314831  2.101030
      ESP Fit Center   95 is at   1.579818  2.198030  2.101030
      ESP Fit Center   96 is at   1.231050  1.973891  2.101030
      ESP Fit Center   97 is at   0.959557  1.660571  2.101030
      ESP Fit Center   98 is at   0.959557  0.085615  2.101030
      ESP Fit Center   99 is at   1.231050 -0.227704  2.101030
      ESP Fit Center  100 is at   2.392187 -0.568645  2.101030
      ESP Fit Center  101 is at   2.789975 -0.451844  2.101030
      ESP Fit Center  102 is at   3.138743 -0.227704  2.101030
      ESP Fit Center  103 is at   3.410236  0.085615  2.101030
      ESP Fit Center  104 is at   3.582459  0.462732  2.101030
      ESP Fit Center  105 is at   3.882306  0.873093  1.769534
      ESP Fit Center  106 is at   3.828979  1.295222  1.769534
      ESP Fit Center  107 is at   3.672348  1.690826  1.769534
      ESP Fit Center  108 is at   3.422255  2.035050  1.769534
      ESP Fit Center  109 is at   3.094414  2.306264  1.769534
      ESP Fit Center  110 is at   2.709425  2.487426  1.769534
      ESP Fit Center  111 is at   2.291477  2.567153  1.769534
      ESP Fit Center  112 is at   1.866833  2.540437  1.769534
      ESP Fit Center  113 is at   1.462174  2.408955  1.769534
      ESP Fit Center  114 is at   1.102926  2.180970  1.769534
      ESP Fit Center  115 is at   0.811663  1.870805  1.769534
      ESP Fit Center  116 is at   3.422255 -0.288864  1.769534
      ESP Fit Center  117 is at   3.672348  0.055360  1.769534
      ESP Fit Center  118 is at   3.828979  0.450964  1.769534
      ESP Fit Center  119 is at   4.048967  0.873093  1.395207
      ESP Fit Center  120 is at   4.002231  1.287888  1.395207
      ESP Fit Center  121 is at   3.864366  1.681883  1.395207
      ESP Fit Center  122 is at   3.642285  2.035322  1.395207
      ESP Fit Center  123 is at   3.347125  2.330482  1.395207
      ESP Fit Center  124 is at   2.993686  2.552563  1.395207
      ESP Fit Center  125 is at   2.599691  2.690428  1.395207
      ESP Fit Center  126 is at   2.184896  2.737164  1.395207
      ESP Fit Center  127 is at   1.770101  2.690428  1.395207
      ESP Fit Center  128 is at   1.376106  2.552563  1.395207
      ESP Fit Center  129 is at   1.022667  2.330482  1.395207
      ESP Fit Center  130 is at   3.642285 -0.289136  1.395207
      ESP Fit Center  131 is at   3.864366  0.064303  1.395207
      ESP Fit Center  132 is at   4.002231  0.458298  1.395207
      ESP Fit Center  133 is at   4.134159  0.873093  0.994410
      ESP Fit Center  134 is at   4.088586  1.292127  0.994410
      ESP Fit Center  135 is at   3.953999  1.691567  0.994410
      ESP Fit Center  136 is at   3.736691  2.052737  0.994410
      ESP Fit Center  137 is at   3.446822  2.358747  0.994410
      ESP Fit Center  138 is at   3.097947  2.595290  0.994410
      ESP Fit Center  139 is at   2.706379  2.751305  0.994410
      ESP Fit Center  140 is at   2.290427  2.819497  0.994410
      ESP Fit Center  141 is at   1.869540  2.796677  0.994410
      ESP Fit Center  142 is at   1.463399  2.683913  0.994410
      ESP Fit Center  143 is at   4.088586  0.454059  0.994410
      ESP Fit Center  144 is at   4.134159  0.873093  0.584658
      ESP Fit Center  145 is at   4.088586  1.292127  0.584658
      ESP Fit Center  146 is at   3.953999  1.691567  0.584658
      ESP Fit Center  147 is at   3.736691  2.052737  0.584658
      ESP Fit Center  148 is at   3.446822  2.358747  0.584658
      ESP Fit Center  149 is at   3.097947  2.595290  0.584658
      ESP Fit Center  150 is at   2.706379  2.751305  0.584658
      ESP Fit Center  151 is at   2.290427  2.819497  0.584658
      ESP Fit Center  152 is at   1.869540  2.796677  0.584658
      ESP Fit Center  153 is at   4.048967  0.873093  0.183860
      ESP Fit Center  154 is at   4.002231  1.287888  0.183860
      ESP Fit Center  155 is at   3.864366  1.681883  0.183860
      ESP Fit Center  156 is at   3.642285  2.035322  0.183860
      ESP Fit Center  157 is at   3.347125  2.330482  0.183860
      ESP Fit Center  158 is at   2.993686  2.552563  0.183860
      ESP Fit Center  159 is at   2.599691  2.690428  0.183860
      ESP Fit Center  160 is at   2.184896  2.737164  0.183860
      ESP Fit Center  161 is at   3.828979  1.295222 -0.190466
      ESP Fit Center  162 is at   3.672348  1.690826 -0.190466
      ESP Fit Center  163 is at   3.422255  2.035050 -0.190466
      ESP Fit Center  164 is at   3.094414  2.306264 -0.190466
      ESP Fit Center  165 is at   2.709425  2.487426 -0.190466
      ESP Fit Center  166 is at   2.291477  2.567153 -0.190466
      ESP Fit Center  167 is at   1.866833  2.540437 -0.190466
      ESP Fit Center  168 is at   3.582459  1.283454 -0.521962
      ESP Fit Center  169 is at   3.410236  1.660571 -0.521962
      ESP Fit Center  170 is at   3.138743  1.973891 -0.521962
      ESP Fit Center  171 is at   2.789975  2.198030 -0.521962
      ESP Fit Center  172 is at   2.392187  2.314831 -0.521962
      ESP Fit Center  173 is at   1.977605  2.314831 -0.521962
      ESP Fit Center  174 is at   3.036278  1.649230 -0.796140
      ESP Fit Center  175 is at   2.698413  1.904374 -0.796140
      ESP Fit Center  176 is at   2.291195  2.020238 -0.796140
      ESP Fit Center  177 is at   1.869620  1.981173 -0.796140
      ESP Fit Center  178 is at   3.737609 -0.743066  1.339174
      ESP Fit Center  179 is at   3.630804 -0.344464  1.339174
      ESP Fit Center  180 is at   2.940405 -1.540270  1.339174
      ESP Fit Center  181 is at   3.339007 -1.433465  1.339174
      ESP Fit Center  182 is at   3.630804 -1.141668  1.339174
      ESP Fit Center  183 is at   4.092464 -0.743066  1.134298
      ESP Fit Center  184 is at   4.014668 -0.326894  1.134298
      ESP Fit Center  185 is at   2.625129 -1.851146  1.134298
      ESP Fit Center  186 is at   3.046704 -1.890211  1.134298
      ESP Fit Center  187 is at   3.453922 -1.774347  1.134298
      ESP Fit Center  188 is at   3.791787 -1.519203  1.134298
      ESP Fit Center  189 is at   4.014668 -1.159238  1.134298
      ESP Fit Center  190 is at   4.396969 -0.743066  0.860121
      ESP Fit Center  191 is at   4.337968 -0.332704  0.860121
      ESP Fit Center  192 is at   4.165745  0.044412  0.860121
      ESP Fit Center  193 is at   2.335327 -2.068003  0.860121
      ESP Fit Center  194 is at   2.733114 -2.184804  0.860121
      ESP Fit Center  195 is at   3.147696 -2.184804  0.860121
      ESP Fit Center  196 is at   3.545484 -2.068003  0.860121
      ESP Fit Center  197 is at   3.894252 -1.843863  0.860121
      ESP Fit Center  198 is at   4.165745 -1.530544  0.860121
      ESP Fit Center  199 is at   4.337968 -1.153427  0.860121
      ESP Fit Center  200 is at   4.637815 -0.743066  0.528625
      ESP Fit Center  201 is at   4.584488 -0.320937  0.528625
      ESP Fit Center  202 is at   4.427857  0.074667  0.528625
      ESP Fit Center  203 is at   4.177764  0.418891  0.528625
      ESP Fit Center  204 is at   2.217683 -2.278928  0.528625
      ESP Fit Center  205 is at   2.622342 -2.410410  0.528625
      ESP Fit Center  206 is at   3.046986 -2.437126  0.528625
      ESP Fit Center  207 is at   3.464934 -2.357399  0.528625
      ESP Fit Center  208 is at   3.849923 -2.176236  0.528625
      ESP Fit Center  209 is at   4.177764 -1.905023  0.528625
      ESP Fit Center  210 is at   4.427857 -1.560799  0.528625
      ESP Fit Center  211 is at   4.584488 -1.165195  0.528625
      ESP Fit Center  212 is at   4.804476 -0.743066  0.154298
      ESP Fit Center  213 is at   4.757740 -0.328271  0.154298
      ESP Fit Center  214 is at   4.619875  0.065724  0.154298
      ESP Fit Center  215 is at   4.397794  0.419163  0.154298
      ESP Fit Center  216 is at   4.102634  0.714323  0.154298
      ESP Fit Center  217 is at   3.355200 -2.560401  0.154298
      ESP Fit Center  218 is at   3.749195 -2.422536  0.154298
      ESP Fit Center  219 is at   4.102634 -2.200455  0.154298
      ESP Fit Center  220 is at   4.397794 -1.905295  0.154298
      ESP Fit Center  221 is at   4.619875 -1.551856  0.154298
      ESP Fit Center  222 is at   4.757740 -1.157861  0.154298
      ESP Fit Center  223 is at   4.889668 -0.743066 -0.246499
      ESP Fit Center  224 is at   4.844095 -0.324032 -0.246499
      ESP Fit Center  225 is at   4.709508  0.075408 -0.246499
      ESP Fit Center  226 is at   4.492200  0.436578 -0.246499
      ESP Fit Center  227 is at   4.202331  0.742588 -0.246499
      ESP Fit Center  228 is at   3.853456  0.979131 -0.246499
      ESP Fit Center  229 is at   3.853456 -2.465263 -0.246499
      ESP Fit Center  230 is at   4.202331 -2.228720 -0.246499
      ESP Fit Center  231 is at   4.492200 -1.922710 -0.246499
      ESP Fit Center  232 is at   4.709508 -1.561540 -0.246499
      ESP Fit Center  233 is at   4.844095 -1.162100 -0.246499
      ESP Fit Center  234 is at   4.889668 -0.743066 -0.656251
      ESP Fit Center  235 is at   4.844095 -0.324032 -0.656251
      ESP Fit Center  236 is at   4.709508  0.075408 -0.656251
      ESP Fit Center  237 is at   4.492200  0.436578 -0.656251
      ESP Fit Center  238 is at   4.202331  0.742588 -0.656251
      ESP Fit Center  239 is at   3.853456  0.979131 -0.656251
      ESP Fit Center  240 is at   4.202331 -2.228720 -0.656251
      ESP Fit Center  241 is at   4.492200 -1.922710 -0.656251
      ESP Fit Center  242 is at   4.709508 -1.561540 -0.656251
      ESP Fit Center  243 is at   4.844095 -1.162100 -0.656251
      ESP Fit Center  244 is at   4.804476 -0.743066 -1.057049
      ESP Fit Center  245 is at   4.757740 -0.328271 -1.057049
      ESP Fit Center  246 is at   4.619875  0.065724 -1.057049
      ESP Fit Center  247 is at   4.397794  0.419163 -1.057049
      ESP Fit Center  248 is at   4.102634  0.714323 -1.057049
      ESP Fit Center  249 is at   3.749195  0.936404 -1.057049
      ESP Fit Center  250 is at   3.355200  1.074269 -1.057049
      ESP Fit Center  251 is at   4.397794 -1.905295 -1.057049
      ESP Fit Center  252 is at   4.619875 -1.551856 -1.057049
      ESP Fit Center  253 is at   4.757740 -1.157861 -1.057049
      ESP Fit Center  254 is at   4.637815 -0.743066 -1.431375
      ESP Fit Center  255 is at   4.584488 -0.320937 -1.431375
      ESP Fit Center  256 is at   4.427857  0.074667 -1.431375
      ESP Fit Center  257 is at   4.177764  0.418891 -1.431375
      ESP Fit Center  258 is at   3.849923  0.690105 -1.431375
      ESP Fit Center  259 is at   3.464934  0.871267 -1.431375
      ESP Fit Center  260 is at   3.046986  0.950994 -1.431375
      ESP Fit Center  261 is at   4.427857 -1.560799 -1.431375
      ESP Fit Center  262 is at   4.584488 -1.165195 -1.431375
      ESP Fit Center  263 is at   4.396969 -0.743066 -1.762871
      ESP Fit Center  264 is at   4.337968 -0.332704 -1.762871
      ESP Fit Center  265 is at   4.165745  0.044412 -1.762871
      ESP Fit Center  266 is at   3.894252  0.357732 -1.762871
      ESP Fit Center  267 is at   3.545484  0.581871 -1.762871
      ESP Fit Center  268 is at   3.147696  0.698672 -1.762871
      ESP Fit Center  269 is at   2.733114  0.698672 -1.762871
      ESP Fit Center  270 is at   4.165745 -1.530544 -1.762871
      ESP Fit Center  271 is at   4.337968 -1.153427 -1.762871
      ESP Fit Center  272 is at   4.092464 -0.743066 -2.037049
      ESP Fit Center  273 is at   4.014668 -0.326894 -2.037049
      ESP Fit Center  274 is at   3.791787  0.033071 -2.037049
      ESP Fit Center  275 is at   3.453922  0.288215 -2.037049
      ESP Fit Center  276 is at   3.046704  0.404079 -2.037049
      ESP Fit Center  277 is at   2.625129  0.365014 -2.037049
      ESP Fit Center  278 is at   2.246134  0.176297 -2.037049
      ESP Fit Center  279 is at   1.960905 -0.136585 -2.037049
      ESP Fit Center  280 is at   4.014668 -1.159238 -2.037049
      ESP Fit Center  281 is at   3.737609 -0.743066 -2.241924
      ESP Fit Center  282 is at   3.630804 -0.344464 -2.241924
      ESP Fit Center  283 is at   3.339007 -0.052667 -2.241924
      ESP Fit Center  284 is at   2.940405  0.054138 -2.241924
      ESP Fit Center  285 is at   2.541803 -0.052667 -2.241924
      ESP Fit Center  286 is at   2.250006 -0.344464 -2.241924
      ESP Fit Center  287 is at   3.347912 -0.743066 -2.368545
      ESP Fit Center  288 is at   3.144159 -0.390155 -2.368545
      ESP Fit Center  289 is at   2.736652 -0.390155 -2.368545
      ESP Fit Center  290 is at   1.920862 -2.420605  0.202414
      ESP Fit Center  291 is at   2.311660 -2.615200  0.202414
      ESP Fit Center  292 is at   2.746364 -2.655481  0.202414
      ESP Fit Center  293 is at   1.909294 -2.732609 -0.145525
      ESP Fit Center  294 is at   2.313004 -2.891054 -0.145525
      ESP Fit Center  295 is at   2.745482 -2.923463 -0.145525
      ESP Fit Center  296 is at   3.168298 -2.826958 -0.145525
      ESP Fit Center  297 is at   3.543885 -2.610113 -0.145525
      ESP Fit Center  298 is at   1.489294 -2.620070 -0.550709
      ESP Fit Center  299 is at   1.825377 -2.877956 -0.550709
      ESP Fit Center  300 is at   2.216755 -3.040070 -0.550709
      ESP Fit Center  301 is at   2.636755 -3.095364 -0.550709
      ESP Fit Center  302 is at   3.056755 -3.040070 -0.550709
      ESP Fit Center  303 is at   3.448133 -2.877956 -0.550709
      ESP Fit Center  304 is at   3.784216 -2.620070 -0.550709
      ESP Fit Center  305 is at   1.277607 -2.460088 -0.985525
      ESP Fit Center  306 is at   1.565883 -2.767071 -0.985525
      ESP Fit Center  307 is at   1.921446 -2.992718 -0.985525
      ESP Fit Center  308 is at   2.321954 -3.122852 -0.985525
      ESP Fit Center  309 is at   2.742243 -3.149294 -0.985525
      ESP Fit Center  310 is at   3.155904 -3.070384 -0.985525
      ESP Fit Center  311 is at   3.536944 -2.891080 -0.985525
      ESP Fit Center  312 is at   3.861422 -2.622648 -0.985525
      ESP Fit Center  313 is at   4.108950 -2.281955 -0.985525
      ESP Fit Center  314 is at   1.489294 -2.620070 -1.420341
      ESP Fit Center  315 is at   1.825377 -2.877956 -1.420341
      ESP Fit Center  316 is at   2.216755 -3.040070 -1.420341
      ESP Fit Center  317 is at   2.636755 -3.095364 -1.420341
      ESP Fit Center  318 is at   3.056755 -3.040070 -1.420341
      ESP Fit Center  319 is at   3.448133 -2.877956 -1.420341
      ESP Fit Center  320 is at   3.784216 -2.620070 -1.420341
      ESP Fit Center  321 is at   4.042102 -2.283987 -1.420341
      ESP Fit Center  322 is at   4.204216 -1.892609 -1.420341
      ESP Fit Center  323 is at   1.570221 -2.462208 -1.825525
      ESP Fit Center  324 is at   1.909294 -2.732609 -1.825525
      ESP Fit Center  325 is at   2.313004 -2.891054 -1.825525
      ESP Fit Center  326 is at   2.745482 -2.923463 -1.825525
      ESP Fit Center  327 is at   3.168298 -2.826958 -1.825525
      ESP Fit Center  328 is at   3.543885 -2.610113 -1.825525
      ESP Fit Center  329 is at   3.838869 -2.292196 -1.825525
      ESP Fit Center  330 is at   4.027040 -1.901455 -1.825525
      ESP Fit Center  331 is at   3.824694 -1.472609 -2.173465
      ESP Fit Center  332 is at   1.920862 -0.524613 -2.173465
      ESP Fit Center  333 is at   1.626749 -2.097978 -2.173465
      ESP Fit Center  334 is at   1.920862 -2.420605 -2.173465
      ESP Fit Center  335 is at   2.311660 -2.615200 -2.173465
      ESP Fit Center  336 is at   2.746364 -2.655481 -2.173465
      ESP Fit Center  337 is at   3.166265 -2.536009 -2.173465
      ESP Fit Center  338 is at   3.514653 -2.272919 -2.173465
      ESP Fit Center  339 is at   3.744476 -1.901742 -2.173465
      ESP Fit Center  340 is at   3.476755 -1.472609 -2.440448
      ESP Fit Center  341 is at   3.364216 -1.052609 -2.440448
      ESP Fit Center  342 is at   3.056755 -0.745148 -2.440448
      ESP Fit Center  343 is at   2.636755 -0.632609 -2.440448
      ESP Fit Center  344 is at   2.216755 -0.745148 -2.440448
      ESP Fit Center  345 is at   1.909294 -1.052609 -2.440448
      ESP Fit Center  346 is at   1.796755 -1.472609 -2.440448
      ESP Fit Center  347 is at   1.909294 -1.892609 -2.440448
      ESP Fit Center  348 is at   2.216755 -2.200070 -2.440448
      ESP Fit Center  349 is at   2.636755 -2.312609 -2.440448
      ESP Fit Center  350 is at   3.056755 -2.200070 -2.440448
      ESP Fit Center  351 is at   3.364216 -1.892609 -2.440448
      ESP Fit Center  352 is at   3.071571 -1.472609 -2.608281
      ESP Fit Center  353 is at   2.854163 -1.096047 -2.608281
      ESP Fit Center  354 is at   2.419347 -1.096047 -2.608281
      ESP Fit Center  355 is at   2.201939 -1.472609 -2.608281
      ESP Fit Center  356 is at   2.419347 -1.849171 -2.608281
      ESP Fit Center  357 is at   2.854163 -1.849171 -2.608281
      ESP Fit Center  358 is at   2.636755 -1.472609 -2.665525
      ESP Fit Center  359 is at   0.759345 -0.945879  1.853327
      ESP Fit Center  360 is at  -0.534285 -2.196915 -1.009957
      ESP Fit Center  361 is at  -0.163622 -2.393428 -1.009957
      ESP Fit Center  362 is at   1.073544 -2.460506 -1.009957
      ESP Fit Center  363 is at   1.171360  0.759658 -1.691246
      ESP Fit Center  364 is at  -0.354907 -1.127123  1.715548
      ESP Fit Center  365 is at  -1.873198  1.500556  1.397321
      ESP Fit Center  366 is at   0.476166 -1.544690  1.982571
      ESP Fit Center  367 is at   0.910982 -1.544690  1.925326
      ESP Fit Center  368 is at   0.693574 -1.168128  1.925326
      ESP Fit Center  369 is at   0.258758 -1.168128  1.925326
      ESP Fit Center  370 is at   0.041350 -1.544690  1.925326
      ESP Fit Center  371 is at   0.258758 -1.921252  1.925326
      ESP Fit Center  372 is at   0.693574 -1.921252  1.925326
      ESP Fit Center  373 is at   1.316166 -1.544690  1.757493
      ESP Fit Center  374 is at   1.203627 -1.124690  1.757493
      ESP Fit Center  375 is at  -0.251295 -1.124690  1.757493
      ESP Fit Center  376 is at  -0.363834 -1.544690  1.757493
      ESP Fit Center  377 is at  -0.251295 -1.964690  1.757493
      ESP Fit Center  378 is at   0.056166 -2.272151  1.757493
      ESP Fit Center  379 is at   0.476166 -2.384690  1.757493
      ESP Fit Center  380 is at   0.896166 -2.272151  1.757493
      ESP Fit Center  381 is at   1.203627 -1.964690  1.757493
      ESP Fit Center  382 is at  -0.533840 -2.170060  1.490510
      ESP Fit Center  383 is at  -0.239727 -2.492686  1.490510
      ESP Fit Center  384 is at   0.151071 -2.687281  1.490510
      ESP Fit Center  385 is at   0.585775 -2.727562  1.490510
      ESP Fit Center  386 is at   1.005676 -2.608090  1.490510
      ESP Fit Center  387 is at   1.354064 -2.345000  1.490510
      ESP Fit Center  388 is at   1.583887 -1.973823  1.490510
      ESP Fit Center  389 is at  -0.251295 -2.804690  1.142571
      ESP Fit Center  390 is at   0.152415 -2.963135  1.142571
      ESP Fit Center  391 is at   0.584893 -2.995544  1.142571
      ESP Fit Center  392 is at   1.007709 -2.899039  1.142571
      ESP Fit Center  393 is at   1.383296 -2.682194  1.142571
      ESP Fit Center  394 is at   1.678280 -2.364277  1.142571
      ESP Fit Center  395 is at   1.866451 -1.973536  1.142571
      ESP Fit Center  396 is at  -0.335212 -2.950037  0.737387
      ESP Fit Center  397 is at   0.056166 -3.112151  0.737387
      ESP Fit Center  398 is at   0.476166 -3.167445  0.737387
      ESP Fit Center  399 is at   0.896166 -3.112151  0.737387
      ESP Fit Center  400 is at   1.287544 -2.950037  0.737387
      ESP Fit Center  401 is at   1.623627 -2.692151  0.737387
      ESP Fit Center  402 is at   1.881513 -2.356068  0.737387
      ESP Fit Center  403 is at  -0.239143 -3.064799  0.302571
      ESP Fit Center  404 is at   0.161365 -3.194933  0.302571
      ESP Fit Center  405 is at   0.581654 -3.221375  0.302571
      ESP Fit Center  406 is at   0.995315 -3.142465  0.302571
      ESP Fit Center  407 is at   1.376355 -2.963161  0.302571
      ESP Fit Center  408 is at   1.700833 -2.694729  0.302571
      ESP Fit Center  409 is at   1.948361 -2.354036  0.302571
      ESP Fit Center  410 is at  -0.335212 -2.950037 -0.132245
      ESP Fit Center  411 is at   0.056166 -3.112151 -0.132245
      ESP Fit Center  412 is at   0.476166 -3.167445 -0.132245
      ESP Fit Center  413 is at   0.896166 -3.112151 -0.132245
      ESP Fit Center  414 is at   1.287544 -2.950037 -0.132245
      ESP Fit Center  415 is at   1.623627 -2.692151 -0.132245
      ESP Fit Center  416 is at  -0.251295 -2.804690 -0.537429
      ESP Fit Center  417 is at   0.152415 -2.963135 -0.537429
      ESP Fit Center  418 is at   0.584893 -2.995544 -0.537429
      ESP Fit Center  419 is at   1.007709 -2.899039 -0.537429
      ESP Fit Center  420 is at   1.383296 -2.682194 -0.537429
      ESP Fit Center  421 is at  -0.239727 -2.492686 -0.885369
      ESP Fit Center  422 is at   0.151071 -2.687281 -0.885369
      ESP Fit Center  423 is at   0.585775 -2.727562 -0.885369
      ESP Fit Center  424 is at   1.005676 -2.608090 -0.885369
      ESP Fit Center  425 is at  -0.870632 -1.777869 -1.271046
      ESP Fit Center  426 is at  -0.582356 -2.084852 -1.271046
      ESP Fit Center  427 is at  -0.226793 -2.310499 -1.271046
      ESP Fit Center  428 is at   0.173715 -2.440633 -1.271046
      ESP Fit Center  429 is at   0.594004 -2.467075 -1.271046
      ESP Fit Center  430 is at   1.007665 -2.388165 -1.271046
      ESP Fit Center  431 is at  -1.078945 -1.210390 -1.705862
      ESP Fit Center  432 is at  -0.916831 -1.601768 -1.705862
      ESP Fit Center  433 is at  -0.658945 -1.937851 -1.705862
      ESP Fit Center  434 is at  -0.322862 -2.195737 -1.705862
      ESP Fit Center  435 is at   0.068516 -2.357851 -1.705862
      ESP Fit Center  436 is at   0.488516 -2.413145 -1.705862
      ESP Fit Center  437 is at   0.908516 -2.357851 -1.705862
      ESP Fit Center  438 is at   1.299894 -2.195737 -1.705862
      ESP Fit Center  439 is at   1.878801 -0.361544 -2.111046
      ESP Fit Center  440 is at   1.690630  0.029197 -2.111046
      ESP Fit Center  441 is at   1.395646  0.347114 -2.111046
      ESP Fit Center  442 is at   1.020059  0.563959 -2.111046
      ESP Fit Center  443 is at   0.597243  0.660464 -2.111046
      ESP Fit Center  444 is at  -0.578018  0.199209 -2.111046
      ESP Fit Center  445 is at  -0.822324 -0.159123 -2.111046
      ESP Fit Center  446 is at  -0.950156 -0.573545 -2.111046
      ESP Fit Center  447 is at  -0.950156 -1.007235 -2.111046
      ESP Fit Center  448 is at  -0.822324 -1.421657 -2.111046
      ESP Fit Center  449 is at  -0.578018 -1.779989 -2.111046
      ESP Fit Center  450 is at  -0.238945 -2.050390 -2.111046
      ESP Fit Center  451 is at   0.164765 -2.208835 -2.111046
      ESP Fit Center  452 is at   0.597243 -2.241244 -2.111046
      ESP Fit Center  453 is at   1.020059 -2.144739 -2.111046
      ESP Fit Center  454 is at   1.395646 -1.927894 -2.111046
      ESP Fit Center  455 is at   1.676455 -0.790390 -2.458986
      ESP Fit Center  456 is at   1.596237 -0.361257 -2.458986
      ESP Fit Center  457 is at   1.366414  0.009920 -2.458986
      ESP Fit Center  458 is at   1.018026  0.273010 -2.458986
      ESP Fit Center  459 is at   0.598125  0.392482 -2.458986
      ESP Fit Center  460 is at   0.163421  0.352201 -2.458986
      ESP Fit Center  461 is at  -0.227377  0.157606 -2.458986
      ESP Fit Center  462 is at  -0.521490 -0.165021 -2.458986
      ESP Fit Center  463 is at  -0.679196 -0.572107 -2.458986
      ESP Fit Center  464 is at  -0.679196 -1.008673 -2.458986
      ESP Fit Center  465 is at  -0.521490 -1.415760 -2.458986
      ESP Fit Center  466 is at  -0.227377 -1.738386 -2.458986
      ESP Fit Center  467 is at   0.163421 -1.932981 -2.458986
      ESP Fit Center  468 is at   0.598125 -1.973262 -2.458986
      ESP Fit Center  469 is at   1.018026 -1.853790 -2.458986
      ESP Fit Center  470 is at   1.366414 -1.590700 -2.458986
      ESP Fit Center  471 is at   1.596237 -1.219523 -2.458986
      ESP Fit Center  472 is at   1.328516 -0.790390 -2.725969
      ESP Fit Center  473 is at   1.215977 -0.370390 -2.725969
      ESP Fit Center  474 is at   0.908516 -0.062929 -2.725969
      ESP Fit Center  475 is at   0.488516  0.049610 -2.725969
      ESP Fit Center  476 is at   0.068516 -0.062929 -2.725969
      ESP Fit Center  477 is at  -0.238945 -0.370390 -2.725969
      ESP Fit Center  478 is at  -0.351484 -0.790390 -2.725969
      ESP Fit Center  479 is at  -0.238945 -1.210390 -2.725969
      ESP Fit Center  480 is at   0.068516 -1.517851 -2.725969
      ESP Fit Center  481 is at   0.488516 -1.630390 -2.725969
      ESP Fit Center  482 is at   0.908516 -1.517851 -2.725969
      ESP Fit Center  483 is at   1.215977 -1.210390 -2.725969
      ESP Fit Center  484 is at   0.923332 -0.790390 -2.893802
      ESP Fit Center  485 is at   0.705924 -0.413828 -2.893802
      ESP Fit Center  486 is at   0.271108 -0.413828 -2.893802
      ESP Fit Center  487 is at   0.053700 -0.790390 -2.893802
      ESP Fit Center  488 is at   0.271108 -1.166952 -2.893802
      ESP Fit Center  489 is at   0.705924 -1.166952 -2.893802
      ESP Fit Center  490 is at   0.488516 -0.790390 -2.951046
      ESP Fit Center  491 is at  -0.514371  2.387673  1.409393
      ESP Fit Center  492 is at  -0.916189  2.280006  1.409393
      ESP Fit Center  493 is at  -0.833653  2.706198  1.215332
      ESP Fit Center  494 is at  -0.725698  3.053848  0.954170
      ESP Fit Center  495 is at  -0.724838  3.317393  0.635943
      ESP Fit Center  496 is at  -0.618691  3.641043 -0.121065
      ESP Fit Center  497 is at  -0.514371  3.684038 -0.530754
      ESP Fit Center  498 is at  -0.202483  3.619936 -0.940444
      ESP Fit Center  499 is at  -0.618691  3.641043 -0.940444
      ESP Fit Center  500 is at   1.425776  1.584038 -1.334389
      ESP Fit Center  501 is at   0.004673  3.453467 -1.334389
      ESP Fit Center  502 is at  -0.409334  3.521340 -1.334389
      ESP Fit Center  503 is at  -0.828252  3.498626 -1.334389
      ESP Fit Center  504 is at   1.231715  1.584038 -1.697452
      ESP Fit Center  505 is at   1.180977  2.001904 -1.697452
      ESP Fit Center  506 is at   1.031712  2.395485 -1.697452
      ESP Fit Center  507 is at   0.792593  2.741907 -1.697452
      ESP Fit Center  508 is at   0.477519  3.021039 -1.697452
      ESP Fit Center  509 is at   0.104800  3.216657 -1.697452
      ESP Fit Center  510 is at  -0.303904  3.317393 -1.697452
      ESP Fit Center  511 is at  -0.724838  3.317393 -1.697452
      ESP Fit Center  512 is at  -1.133542  3.216657 -1.697452
      ESP Fit Center  513 is at   1.180977  1.166172 -1.697452
      ESP Fit Center  514 is at   0.970553  1.584038 -2.015678
      ESP Fit Center  515 is at   0.910403  2.002389 -2.015678
      ESP Fit Center  516 is at   0.734827  2.386849 -2.015678
      ESP Fit Center  517 is at   0.458048  2.706269 -2.015678
      ESP Fit Center  518 is at   0.102489  2.934773 -2.015678
      ESP Fit Center  519 is at  -0.303044  3.053848 -2.015678
      ESP Fit Center  520 is at  -0.725698  3.053848 -2.015678
      ESP Fit Center  521 is at  -1.131231  2.934773 -2.015678
      ESP Fit Center  522 is at  -1.486790  2.706269 -2.015678
      ESP Fit Center  523 is at  -1.763569  2.386849 -2.015678
      ESP Fit Center  524 is at  -1.939145  2.002389 -2.015678
      ESP Fit Center  525 is at  -1.999295  1.584038 -2.015678
      ESP Fit Center  526 is at  -1.939145  1.165686 -2.015678
      ESP Fit Center  527 is at  -1.763569  0.781227 -2.015678
      ESP Fit Center  528 is at  -1.486790  0.461807 -2.015678
      ESP Fit Center  529 is at  -1.131231  0.233303 -2.015678
      ESP Fit Center  530 is at  -0.725698  0.114228 -2.015678
      ESP Fit Center  531 is at   0.734827  0.781227 -2.015678
      ESP Fit Center  532 is at   0.910403  1.165686 -2.015678
      ESP Fit Center  533 is at   0.652326  1.584038 -2.276840
      ESP Fit Center  534 is at   0.573542  2.005498 -2.276840
      ESP Fit Center  535 is at   0.347829  2.370037 -2.276840
      ESP Fit Center  536 is at   0.005671  2.628423 -2.276840
      ESP Fit Center  537 is at  -0.406722  2.745759 -2.276840
      ESP Fit Center  538 is at  -0.833653  2.706198 -2.276840
      ESP Fit Center  539 is at  -1.217463  2.515083 -2.276840
      ESP Fit Center  540 is at  -1.506317  2.198225 -2.276840
      ESP Fit Center  541 is at  -1.661203  1.798418 -2.276840
      ESP Fit Center  542 is at  -1.661203  1.369658 -2.276840
      ESP Fit Center  543 is at  -1.506317  0.969851 -2.276840
      ESP Fit Center  544 is at  -1.217463  0.652993 -2.276840
      ESP Fit Center  545 is at  -0.833653  0.461878 -2.276840
      ESP Fit Center  546 is at  -0.406722  0.422317 -2.276840
      ESP Fit Center  547 is at   0.005671  0.539653 -2.276840
      ESP Fit Center  548 is at   0.347829  0.798039 -2.276840
      ESP Fit Center  549 is at   0.573542  1.162578 -2.276840
      ESP Fit Center  550 is at   0.289264  1.584038 -2.470901
      ESP Fit Center  551 is at   0.181598  1.985856 -2.470901
      ESP Fit Center  552 is at  -0.112553  2.280006 -2.470901
      ESP Fit Center  553 is at  -0.514371  2.387673 -2.470901
      ESP Fit Center  554 is at  -0.916189  2.280006 -2.470901
      ESP Fit Center  555 is at  -1.210339  1.985856 -2.470901
      ESP Fit Center  556 is at  -1.318006  1.584038 -2.470901
      ESP Fit Center  557 is at  -1.210339  1.182220 -2.470901
      ESP Fit Center  558 is at  -0.916189  0.888069 -2.470901
      ESP Fit Center  559 is at  -0.514371  0.780403 -2.470901
      ESP Fit Center  560 is at  -0.112553  0.888069 -2.470901
      ESP Fit Center  561 is at   0.181598  1.182220 -2.470901
      ESP Fit Center  562 is at  -0.104681  1.584038 -2.590403
      ESP Fit Center  563 is at  -0.309526  1.938840 -2.590403
      ESP Fit Center  564 is at  -0.719216  1.938840 -2.590403
      ESP Fit Center  565 is at  -0.924061  1.584038 -2.590403
      ESP Fit Center  566 is at  -0.719216  1.229236 -2.590403
      ESP Fit Center  567 is at  -0.309526  1.229236 -2.590403
      ESP Fit Center  568 is at  -0.514371  1.584038 -2.630754
      ESP Fit Center  569 is at   0.218569  2.162204  1.512771
      ESP Fit Center  570 is at   0.653385  2.162204  1.455526
      ESP Fit Center  571 is at   0.435977  2.538766  1.455526
      ESP Fit Center  572 is at   0.001161  2.538766  1.455526
      ESP Fit Center  573 is at   0.946030  2.582204  1.287693
      ESP Fit Center  574 is at   0.638569  2.889665  1.287693
      ESP Fit Center  575 is at   0.218569  3.002204  1.287693
      ESP Fit Center  576 is at  -0.201431  2.889665  1.287693
      ESP Fit Center  577 is at   1.096467  2.962514  1.020710
      ESP Fit Center  578 is at   0.748079  3.225604  1.020710
      ESP Fit Center  579 is at   0.328178  3.345076  1.020710
      ESP Fit Center  580 is at  -0.106526  3.304795  1.020710
      ESP Fit Center  581 is at  -0.497324  3.110200  1.020710
      ESP Fit Center  582 is at   1.420683  2.981791  0.672771
      ESP Fit Center  583 is at   1.125698  3.299708  0.672771
      ESP Fit Center  584 is at   0.750112  3.516553  0.672771
      ESP Fit Center  585 is at   0.327295  3.613058  0.672771
      ESP Fit Center  586 is at  -0.105182  3.580649  0.672771
      ESP Fit Center  587 is at  -0.508892  3.422204  0.672771
      ESP Fit Center  588 is at   1.623916  2.973582  0.267587
      ESP Fit Center  589 is at   1.366030  3.309665  0.267587
      ESP Fit Center  590 is at   1.029947  3.567551  0.267587
      ESP Fit Center  591 is at   0.638569  3.729665  0.267587
      ESP Fit Center  592 is at   0.218569  3.784959  0.267587
      ESP Fit Center  593 is at  -0.201431  3.729665  0.267587
      ESP Fit Center  594 is at  -0.592809  3.567551  0.267587
      ESP Fit Center  595 is at   1.845789  2.580003 -0.167229
      ESP Fit Center  596 is at   1.690764  2.971550 -0.167229
      ESP Fit Center  597 is at   1.443236  3.312243 -0.167229
      ESP Fit Center  598 is at   1.118758  3.580675 -0.167229
      ESP Fit Center  599 is at   0.737718  3.759979 -0.167229
      ESP Fit Center  600 is at   0.324057  3.838889 -0.167229
      ESP Fit Center  601 is at  -0.096232  3.812447 -0.167229
      ESP Fit Center  602 is at  -0.496740  3.682313 -0.167229
      ESP Fit Center  603 is at   1.786030  2.582204 -0.602045
      ESP Fit Center  604 is at   1.623916  2.973582 -0.602045
      ESP Fit Center  605 is at   1.366030  3.309665 -0.602045
      ESP Fit Center  606 is at   1.029947  3.567551 -0.602045
      ESP Fit Center  607 is at   0.638569  3.729665 -0.602045
      ESP Fit Center  608 is at   0.218569  3.784959 -0.602045
      ESP Fit Center  609 is at  -0.201431  3.729665 -0.602045
      ESP Fit Center  610 is at   1.673492  2.162204 -1.007229
      ESP Fit Center  611 is at   1.608854  2.591050 -1.007229
      ESP Fit Center  612 is at   1.420683  2.981791 -1.007229
      ESP Fit Center  613 is at   1.125698  3.299708 -1.007229
      ESP Fit Center  614 is at   0.750112  3.516553 -1.007229
      ESP Fit Center  615 is at   0.327295  3.613058 -1.007229
      ESP Fit Center  616 is at   1.608854  1.733358 -1.007229
      ESP Fit Center  617 is at   1.406508  2.162204 -1.355169
      ESP Fit Center  618 is at   1.326289  2.591337 -1.355169
      ESP Fit Center  619 is at   1.096467  2.962514 -1.355169
      ESP Fit Center  620 is at   0.748079  3.225604 -1.355169
      ESP Fit Center  621 is at   0.328178  3.345076 -1.355169
      ESP Fit Center  622 is at  -1.590698  2.453020  1.238011
      ESP Fit Center  623 is at  -1.808106  2.076458  1.238011
      ESP Fit Center  624 is at  -1.373290  2.916458  1.070178
      ESP Fit Center  625 is at  -1.793290  2.803919  1.070178
      ESP Fit Center  626 is at  -2.100751  2.496458  1.070178
      ESP Fit Center  627 is at  -2.213290  2.076458  1.070178
      ESP Fit Center  628 is at  -2.100751  1.656458  1.070178
      ESP Fit Center  629 is at  -1.263681  3.259330  0.803195
      ESP Fit Center  630 is at  -1.698385  3.219048  0.803195
      ESP Fit Center  631 is at  -2.089183  3.024454  0.803195
      ESP Fit Center  632 is at  -2.383296  2.701827  0.803195
      ESP Fit Center  633 is at  -2.541002  2.294741  0.803195
      ESP Fit Center  634 is at  -0.841747  3.430807  0.455256
      ESP Fit Center  635 is at  -1.264564  3.527312  0.455256
      ESP Fit Center  636 is at  -1.697041  3.494903  0.455256
      ESP Fit Center  637 is at  -2.100751  3.336458  0.455256
      ESP Fit Center  638 is at  -2.439824  3.066057  0.455256
      ESP Fit Center  639 is at  -2.684130  2.707725  0.455256
      ESP Fit Center  640 is at  -2.811962  2.293303  0.455256
      ESP Fit Center  641 is at  -0.953290  3.643919  0.050072
      ESP Fit Center  642 is at  -1.373290  3.699213  0.050072
      ESP Fit Center  643 is at  -1.793290  3.643919  0.050072
      ESP Fit Center  644 is at  -2.184668  3.481805  0.050072
      ESP Fit Center  645 is at  -2.520751  3.223919  0.050072
      ESP Fit Center  646 is at  -2.778637  2.887836  0.050072
      ESP Fit Center  647 is at  -2.940751  2.496458  0.050072
      ESP Fit Center  648 is at  -0.854141  3.674233 -0.384744
      ESP Fit Center  649 is at  -1.267802  3.753143 -0.384744
      ESP Fit Center  650 is at  -1.688091  3.726700 -0.384744
      ESP Fit Center  651 is at  -2.088599  3.596567 -0.384744
      ESP Fit Center  652 is at  -2.444162  3.370920 -0.384744
      ESP Fit Center  653 is at  -2.732439  3.063937 -0.384744
      ESP Fit Center  654 is at  -2.935315  2.694907 -0.384744
      ESP Fit Center  655 is at  -0.953290  3.643919 -0.819560
      ESP Fit Center  656 is at  -1.373290  3.699213 -0.819560
      ESP Fit Center  657 is at  -1.793290  3.643919 -0.819560
      ESP Fit Center  658 is at  -2.184668  3.481805 -0.819560
      ESP Fit Center  659 is at  -2.520751  3.223919 -0.819560
      ESP Fit Center  660 is at  -2.778637  2.887836 -0.819560
      ESP Fit Center  661 is at  -2.940751  2.496458 -0.819560
      ESP Fit Center  662 is at  -1.264564  3.527312 -1.224744
      ESP Fit Center  663 is at  -1.697041  3.494903 -1.224744
      ESP Fit Center  664 is at  -2.100751  3.336458 -1.224744
      ESP Fit Center  665 is at  -2.439824  3.066057 -1.224744
      ESP Fit Center  666 is at  -2.684130  2.707725 -1.224744
      ESP Fit Center  667 is at  -2.811962  2.293303 -1.224744
      ESP Fit Center  668 is at  -1.263681  3.259330 -1.572684
      ESP Fit Center  669 is at  -1.698385  3.219048 -1.572684
      ESP Fit Center  670 is at  -2.089183  3.024454 -1.572684
      ESP Fit Center  671 is at  -2.383296  2.701827 -1.572684
      ESP Fit Center  672 is at  -2.541002  2.294741 -1.572684
      ESP Fit Center  673 is at  -2.541002  1.858175 -1.572684
      ESP Fit Center  674 is at  -1.793290  2.803919 -1.839667
      ESP Fit Center  675 is at  -2.100751  2.496458 -1.839667
      ESP Fit Center  676 is at  -2.213290  2.076458 -1.839667
      ESP Fit Center  677 is at  -1.940918 -0.329898  2.187821
      ESP Fit Center  678 is at  -2.145763  0.024904  2.147470
      ESP Fit Center  679 is at  -2.350608 -0.329898  2.147470
      ESP Fit Center  680 is at  -2.145763 -0.684700  2.147470
      ESP Fit Center  681 is at  -1.736073 -0.684700  2.147470
      ESP Fit Center  682 is at  -2.342736  0.366070  2.027968
      ESP Fit Center  683 is at  -2.636886  0.071919  2.027968
      ESP Fit Center  684 is at  -2.744553 -0.329898  2.027968
      ESP Fit Center  685 is at  -2.636886 -0.731716  2.027968
      ESP Fit Center  686 is at  -2.260200  0.792261  1.833907
      ESP Fit Center  687 is at  -2.644010  0.601147  1.833907
      ESP Fit Center  688 is at  -2.932864  0.284289  1.833907
      ESP Fit Center  689 is at  -3.087750 -0.115518  1.833907
      ESP Fit Center  690 is at  -3.087750 -0.544278  1.833907
      ESP Fit Center  691 is at  -2.152245  1.139912  1.572745
      ESP Fit Center  692 is at  -3.425842 -0.329898  1.572745
      ESP Fit Center  693 is at  -3.365692 -0.748250  1.572745
      ESP Fit Center  694 is at  -3.636266 -0.747764  1.254518
      ESP Fit Center  695 is at  -2.932864 -0.944085 -1.658265
      ESP Fit Center  696 is at  -2.644010 -1.260943 -1.658265
      ESP Fit Center  697 is at  -2.260200 -1.452058 -1.658265
      ESP Fit Center  698 is at  -1.833269 -1.491619 -1.658265
      ESP Fit Center  699 is at  -1.420876 -1.374283 -1.658265
      ESP Fit Center  700 is at  -1.137283 -0.329898 -1.852326
      ESP Fit Center  701 is at  -1.244949  0.071919 -1.852326
      ESP Fit Center  702 is at  -2.636886 -0.731716 -1.852326
      ESP Fit Center  703 is at  -2.342736 -1.025867 -1.852326
      ESP Fit Center  704 is at  -1.940918 -1.133533 -1.852326
      ESP Fit Center  705 is at  -1.539100 -1.025867 -1.852326
      ESP Fit Center  706 is at  -1.244949 -0.731716 -1.852326
      ESP Fit Center  707 is at  -1.531228 -0.329898 -1.971828
      ESP Fit Center  708 is at  -1.736073  0.024904 -1.971828
      ESP Fit Center  709 is at  -2.350608 -0.329898 -1.971828
      ESP Fit Center  710 is at  -2.145763 -0.684700 -1.971828
      ESP Fit Center  711 is at  -1.736073 -0.684700 -1.971828
      ESP Fit Center  712 is at  -1.940918 -0.329898 -2.012179
      ESP Fit Center  713 is at  -0.457291  0.518258  2.981005
      ESP Fit Center  714 is at  -0.022475  0.518258  2.923760
      ESP Fit Center  715 is at  -0.239883  0.894820  2.923760
      ESP Fit Center  716 is at  -0.674699  0.894820  2.923760
      ESP Fit Center  717 is at  -0.892107  0.518258  2.923760
      ESP Fit Center  718 is at  -0.674699  0.141696  2.923760
      ESP Fit Center  719 is at  -0.239883  0.141696  2.923760
      ESP Fit Center  720 is at   0.382709  0.518258  2.755927
      ESP Fit Center  721 is at   0.270170  0.938258  2.755927
      ESP Fit Center  722 is at  -0.037291  1.245719  2.755927
      ESP Fit Center  723 is at  -0.457291  1.358258  2.755927
      ESP Fit Center  724 is at  -0.877291  1.245719  2.755927
      ESP Fit Center  725 is at  -1.184752  0.938258  2.755927
      ESP Fit Center  726 is at  -1.297291  0.518258  2.755927
      ESP Fit Center  727 is at  -1.184752  0.098258  2.755927
      ESP Fit Center  728 is at  -0.877291 -0.209203  2.755927
      ESP Fit Center  729 is at  -0.457291 -0.321742  2.755927
      ESP Fit Center  730 is at  -0.037291 -0.209203  2.755927
      ESP Fit Center  731 is at   0.270170  0.098258  2.755927
      ESP Fit Center  732 is at   0.730648  0.518258  2.488944
      ESP Fit Center  733 is at   0.650430  0.947391  2.488944
      ESP Fit Center  734 is at   0.420607  1.318568  2.488944
      ESP Fit Center  735 is at   0.072219  1.581658  2.488944
      ESP Fit Center  736 is at  -0.347682  1.701130  2.488944
      ESP Fit Center  737 is at  -0.782386  1.660849  2.488944
      ESP Fit Center  738 is at  -1.173184  1.466254  2.488944
      ESP Fit Center  739 is at  -1.467297  1.143627  2.488944
      ESP Fit Center  740 is at  -1.625003  0.736541  2.488944
      ESP Fit Center  741 is at  -1.625003  0.299975  2.488944
      ESP Fit Center  742 is at  -1.467297 -0.107112  2.488944
      ESP Fit Center  743 is at  -1.173184 -0.429738  2.488944
      ESP Fit Center  744 is at  -0.782386 -0.624333  2.488944
      ESP Fit Center  745 is at  -0.347682 -0.664614  2.488944
      ESP Fit Center  746 is at   0.072219 -0.545142  2.488944
      ESP Fit Center  747 is at   0.420607 -0.282052  2.488944
      ESP Fit Center  748 is at   0.650430  0.089125  2.488944
      ESP Fit Center  749 is at   0.744823  1.337845  2.141005
      ESP Fit Center  750 is at   0.449838  1.655762  2.141005
      ESP Fit Center  751 is at   0.074252  1.872607  2.141005
      ESP Fit Center  752 is at  -0.348564  1.969112  2.141005
      ESP Fit Center  753 is at  -0.781042  1.936703  2.141005
      ESP Fit Center  754 is at  -1.184752  1.778258  2.141005
[...]
 4414 Fit      -0.144157
 4415 Fit      -0.143019
 4416 Fit      -0.138308
 4417 Fit      -0.131384
 4418 Fit      -0.124156
 4419 Fit      -0.118544
 4420 Fit      -0.115547
 4421 Fit      -0.114739
 4422 Fit      -0.118846
 4423 Fit      -0.119120
 4424 Fit      -0.120264
 4425 Fit      -0.122669
 4426 Fit      -0.126640
 4427 Fit      -0.131688
 4428 Fit      -0.136037
 4429 Fit      -0.137197
 4430 Fit      -0.134077
 4431 Fit      -0.128276
 4432 Fit      -0.122816
 4433 Fit      -0.119736
 4434 Fit      -0.122816
 4435 Fit      -0.123589
 4436 Fit      -0.127242
 4437 Fit      -0.131264
 4438 Fit      -0.130363
 4439 Fit      -0.125514
 4440 Fit      -0.126922
 4441 Fit      -0.114907
 4442 Fit      -0.109937
 4443 Fit      -0.110644
 4444 Fit      -0.105568
 4445 Fit      -0.104310
 4446 Fit      -0.105338
 4447 Fit      -0.101074
 4448 Fit      -0.099770
 4449 Fit      -0.100911
 4450 Fit      -0.105832
 4451 Fit      -0.099856
 4452 Fit      -0.096810
 4453 Fit      -0.096080
 4454 Fit      -0.097295
 4455 Fit      -0.106907
 4456 Fit      -0.099848
 4457 Fit      -0.095624
 4458 Fit      -0.093578
 4459 Fit      -0.093303
 4460 Fit      -0.094540
 4461 Fit      -0.105743
 4462 Fit      -0.098671
 4463 Fit      -0.094282
 4464 Fit      -0.091950
 4465 Fit      -0.091286
 4466 Fit      -0.092027
 4467 Fit      -0.104518
 4468 Fit      -0.097902
 4469 Fit      -0.093637
 4470 Fit      -0.091216
 4471 Fit      -0.090308
 4472 Fit      -0.090684
 4473 Fit      -0.102520
 4474 Fit      -0.096861
 4475 Fit      -0.093143
 4476 Fit      -0.091022
 4477 Fit      -0.090254
 4478 Fit      -0.090661
 4479 Fit      -0.106092
 4480 Fit      -0.099874
 4481 Fit      -0.095499
 4482 Fit      -0.092732
 4483 Fit      -0.091376
 4484 Fit      -0.091275
 4485 Fit      -0.092299
 4486 Fit      -0.102723
 4487 Fit      -0.098227
 4488 Fit      -0.095164
 4489 Fit      -0.093492
 4490 Fit      -0.093134
 4491 Fit      -0.105504
 4492 Fit      -0.101553
 4493 Fit      -0.098519
 4494 Fit      -0.096666
 4495 Fit      -0.096081
 4496 Fit      -0.104877
 4497 Fit      -0.102231
 4498 Fit      -0.128139
 4499 Fit      -0.115674
 4500 Fit      -0.124184
 4501 Fit      -0.135968
 4502 Fit      -0.108809
 4503 Fit      -0.115020
 4504 Fit      -0.124275
 4505 Fit      -0.137043
 4506 Fit      -0.101553
 4507 Fit      -0.104775
 4508 Fit      -0.110103
 4509 Fit      -0.118049
 4510 Fit      -0.129275
 4511 Fit      -0.098911
 4512 Fit      -0.101727
 4513 Fit      -0.106232
 4514 Fit      -0.112865
 4515 Fit      -0.122203
 4516 Fit      -0.135058
 4517 Fit      -0.096464
 4518 Fit      -0.098471
 4519 Fit      -0.101837
 4520 Fit      -0.106949
 4521 Fit      -0.114285
 4522 Fit      -0.124504
 4523 Fit      -0.138582
 4524 Fit      -0.096783
 4525 Fit      -0.099182
 4526 Fit      -0.102978
 4527 Fit      -0.108542
 4528 Fit      -0.116355
 4529 Fit      -0.127097
 4530 Fit      -0.096973
 4531 Fit      -0.098871
 4532 Fit      -0.102033
 4533 Fit      -0.106776
 4534 Fit      -0.113498
 4535 Fit      -0.122744
 4536 Fit      -0.135321
 4537 Fit      -0.099042
 4538 Fit      -0.101112
 4539 Fit      -0.104628
 4540 Fit      -0.109917
 4541 Fit      -0.117414
 4542 Fit      -0.127730
 4543 Fit      -0.141778
 4544 Fit      -0.102687
 4545 Fit      -0.105437
 4546 Fit      -0.109986
 4547 Fit      -0.116717
 4548 Fit      -0.126164
 4549 Fit      -0.139097
 4550 Fit      -0.107707
 4551 Fit      -0.111329
 4552 Fit      -0.117091
 4553 Fit      -0.125410
 4554 Fit      -0.136857
 4555 Fit      -0.117027
 4556 Fit      -0.123739
 4557 Fit      -0.133487
 4558 Fit      -0.146750
 4559 Fit      -0.131763
 4560 Fit      -0.142774
 4561 Fit      -0.139622
 4562 Fit      -0.138379
 4563 Fit      -0.144004
 4564 Fit      -0.146342
 4565 Fit      -0.142190
 4566 Fit      -0.138560
 4567 Fit      -0.144029
 4568 Fit      -0.148846
 4569 Fit      -0.152617
 4570 Fit      -0.140206
 4571 Fit      -0.145519
 4572 Fit      -0.150169
 4573 Fit      -0.154215
 4574 Fit      -0.157981
 4575 Fit      -0.139332
 4576 Fit      -0.145266
 4577 Fit      -0.150595
 4578 Fit      -0.154946
 4579 Fit      -0.158504
 4580 Fit      -0.161841
 4581 Fit      -0.143635
 4582 Fit      -0.165521
 4583 Fit      -0.167948
 4584 Fit      -0.174600
 4585 Fit      -0.182777
 4586 Fit      -0.180534
 4587 Fit      -0.172897
 4588 Fit      -0.168522
 4589 Fit      -0.163490
 4590 Fit      -0.158187
 4591 Fit      -0.151813
 4592 Fit      -0.143937
 4593 Fit      -0.162891
 4594 Fit      -0.157008
 4595 Fit      -0.150576
 4596 Fit      -0.143255
 4597 Fit      -0.160316
 4598 Fit      -0.153648
 4599 Fit      -0.146405
 4600 Fit      -0.139600
 4601 Fit      -0.145915
 4602 Fit      -0.154213
 4603 Fit      -0.159641
 4604 Fit      -0.158458
 4605 Fit      -0.151857
 4606 Fit      -0.145130
 4607 Fit      -0.151893
 4608 Fit      -0.109965
 4609 Fit      -0.109329
 4610 Fit      -0.108798
 4611 Fit      -0.109785
 4612 Fit      -0.112320
 4613 Fit      -0.112709
 4614 Fit      -0.110560
 4615 Fit      -0.110595
 4616 Fit      -0.110225
 4617 Fit      -0.109022
 4618 Fit      -0.108614
 4619 Fit      -0.110112
 4620 Fit      -0.113154
 4621 Fit      -0.116352
 4622 Fit      -0.118102
 4623 Fit      -0.117309
 4624 Fit      -0.114368
 4625 Fit      -0.111429
 4626 Fit      -0.110351
 4627 Fit      -0.114162
 4628 Fit      -0.114512
 4629 Fit      -0.112886
 4630 Fit      -0.110497
 4631 Fit      -0.108919
 4632 Fit      -0.109049
 4633 Fit      -0.111010
 4634 Fit      -0.114378
 4635 Fit      -0.118383
 4636 Fit      -0.122142
 4637 Fit      -0.124852
 4638 Fit      -0.125753
 4639 Fit      -0.124217
 4640 Fit      -0.120447
 4641 Fit      -0.115862
 4642 Fit      -0.112370
 4643 Fit      -0.111251
 4644 Fit      -0.112394
 4645 Fit      -0.116430
 4646 Fit      -0.112478
 4647 Fit      -0.109907
 4648 Fit      -0.109282
 4649 Fit      -0.110633
 4650 Fit      -0.113700
 4651 Fit      -0.118017
 4652 Fit      -0.122927
 4653 Fit      -0.127721
 4654 Fit      -0.131855
 4655 Fit      -0.134946
 4656 Fit      -0.136384
 4657 Fit      -0.135253
 4658 Fit      -0.131143
 4659 Fit      -0.124936
 4660 Fit      -0.118476
 4661 Fit      -0.113634
 4662 Fit      -0.111689
 4663 Fit      -0.113041
 4664 Fit      -0.119516
 4665 Fit      -0.114004
 4666 Fit      -0.110793
 4667 Fit      -0.109973
 4668 Fit      -0.111340
 4669 Fit      -0.114620
 4670 Fit      -0.119474
 4671 Fit      -0.125374
 4672 Fit      -0.131588
 4673 Fit      -0.132528
 4674 Fit      -0.123099
 4675 Fit      -0.115657
 4676 Fit      -0.111602
 4677 Fit      -0.115062
 4678 Fit      -0.111544
 4679 Fit      -0.110734
 4680 Fit      -0.112209
 4681 Fit      -0.115702
 4682 Fit      -0.121033
 4683 Fit      -0.127895
 4684 Fit      -0.135660
 4685 Fit      -0.150995
 4686 Fit      -0.154912
 4687 Fit      -0.159506
 4688 Fit      -0.144253
 4689 Fit      -0.146891
 4690 Fit      -0.149856
 4691 Fit      -0.153087
 4692 Fit      -0.156686
 4693 Fit      -0.160852
 4694 Fit      -0.165841
 4695 Fit      -0.141267
 4696 Fit      -0.143665
 4697 Fit      -0.146295
 4698 Fit      -0.149006
 4699 Fit      -0.151792
 4700 Fit      -0.154748
 4701 Fit      -0.158024
 4702 Fit      -0.161808
 4703 Fit      -0.166351
 4704 Fit      -0.172000
 4705 Fit      -0.138734
 4706 Fit      -0.141223
 4707 Fit      -0.143926
 4708 Fit      -0.146598
 4709 Fit      -0.149183
 4710 Fit      -0.151751
 4711 Fit      -0.154420
 4712 Fit      -0.157323
 4713 Fit      -0.160608
 4714 Fit      -0.164462
 4715 Fit      -0.169153
 4716 Fit      -0.175087
 4717 Fit      -0.139216
 4718 Fit      -0.142307
 4719 Fit      -0.145169
 4720 Fit      -0.147776
 4721 Fit      -0.150226
 4722 Fit      -0.152653
 4723 Fit      -0.155189
 4724 Fit      -0.157957
 4725 Fit      -0.161088
 4726 Fit      -0.164741
 4727 Fit      -0.169150
 4728 Fit      -0.174682
 4729 Fit      -0.181923
 4730 Fit      -0.140648
 4731 Fit      -0.143819
 4732 Fit      -0.146525
 4733 Fit      -0.148926
 4734 Fit      -0.151185
 4735 Fit      -0.153448
 4736 Fit      -0.155833
 4737 Fit      -0.158444
 4738 Fit      -0.161385
 4739 Fit      -0.164786
 4740 Fit      -0.168833
 4741 Fit      -0.173818
 4742 Fit      -0.180217
 4743 Fit      -0.140101
 4744 Fit      -0.143514
 4745 Fit      -0.146265
 4746 Fit      -0.148613
 4747 Fit      -0.150763
 4748 Fit      -0.152873
 4749 Fit      -0.155062
 4750 Fit      -0.157428
 4751 Fit      -0.160054
 4752 Fit      -0.163033
 4753 Fit      -0.166490
 4754 Fit      -0.170614
 4755 Fit      -0.175704
 4756 Fit      -0.182248
 4757 Fit      -0.142205
 4758 Fit      -0.145308
 4759 Fit      -0.147794
 4760 Fit      -0.149956
 4761 Fit      -0.152001
 4762 Fit      -0.154074
 4763 Fit      -0.156279
 4764 Fit      -0.158701
 4765 Fit      -0.161418
 4766 Fit      -0.164522
 4767 Fit      -0.168149
 4768 Fit      -0.172508
 4769 Fit      -0.177944
 4770 Fit      -0.185014
 4771 Fit      -0.141193
 4772 Fit      -0.144603
 4773 Fit      -0.147194
 4774 Fit      -0.149346
 4775 Fit      -0.151308
 4776 Fit      -0.153246
 4777 Fit      -0.155276
 4778 Fit      -0.157482
 4779 Fit      -0.159930
 4780 Fit      -0.162691
 4781 Fit      -0.165857
 4782 Fit      -0.169564
 4783 Fit      -0.174034
 4784 Fit      -0.179624
 4785 Fit      -0.186908
 4786 Fit      -0.145219
 4787 Fit      -0.147661
 4788 Fit      -0.149683
 4789 Fit      -0.151532
 4790 Fit      -0.153368
 4791 Fit      -0.155302
 4792 Fit      -0.157410
 4793 Fit      -0.159753
 4794 Fit      -0.162389
 4795 Fit      -0.165394
 4796 Fit      -0.168882
 4797 Fit      -0.173037
 4798 Fit      -0.178149
 4799 Fit      -0.184680
 4800 Fit      -0.144442
 4801 Fit      -0.147034
 4802 Fit      -0.149076
 4803 Fit      -0.150856
 4804 Fit      -0.152567
 4805 Fit      -0.154335
 4806 Fit      -0.156247
 4807 Fit      -0.158362
 4808 Fit      -0.160733
 4809 Fit      -0.163410
 4810 Fit      -0.166471
 4811 Fit      -0.170032
 4812 Fit      -0.174284
 4813 Fit      -0.179521
 4814 Fit      -0.186186
 4815 Fit      -0.147078
 4816 Fit      -0.148952
 4817 Fit      -0.150569
 4818 Fit      -0.152098
 4819 Fit      -0.153662
 4820 Fit      -0.155345
 4821 Fit      -0.157207
 4822 Fit      -0.159290
 4823 Fit      -0.161632
 4824 Fit      -0.164278
 4825 Fit      -0.167296
 4826 Fit      -0.170793
 4827 Fit      -0.174938
 4828 Fit      -0.179971
 4829 Fit      -0.186213
 4830 Fit      -0.149097
 4831 Fit      -0.150413
 4832 Fit      -0.151706
 4833 Fit      -0.153044
 4834 Fit      -0.154501
 4835 Fit      -0.156133
 4836 Fit      -0.157980
 4837 Fit      -0.160071
 4838 Fit      -0.162434
 4839 Fit      -0.165104
 4840 Fit      -0.168143
 4841 Fit      -0.171646
 4842 Fit      -0.175742
 4843 Fit      -0.180579
 4844 Fit      -0.151262
 4845 Fit      -0.151610
 4846 Fit      -0.152367
 4847 Fit      -0.153370
 4848 Fit      -0.154590
 4849 Fit      -0.156043
 4850 Fit      -0.157747
 4851 Fit      -0.159714
 4852 Fit      -0.161953
 4853 Fit      -0.164476
 4854 Fit      -0.167310
 4855 Fit      -0.170491
 4856 Fit      -0.174048
 4857 Fit      -0.177933
 4858 Fit      -0.154164
 4859 Fit      -0.153804
 4860 Fit      -0.154164
 4861 Fit      -0.154976
 4862 Fit      -0.156144
 4863 Fit      -0.157627
 4864 Fit      -0.159404
 4865 Fit      -0.161449
 4866 Fit      -0.163738
 4867 Fit      -0.166237
 4868 Fit      -0.168892
 4869 Fit      -0.171572
 4870 Fit      -0.173978
 4871 Fit      -0.157718
 4872 Fit      -0.155993
 4873 Fit      -0.155584
 4874 Fit      -0.155983
 4875 Fit      -0.156935
 4876 Fit      -0.158312
 4877 Fit      -0.160022
 4878 Fit      -0.161976
 4879 Fit      -0.164063
 4880 Fit      -0.166115
 4881 Fit      -0.167853
 4882 Fit      -0.168803
 4883 Fit      -0.160576
 4884 Fit      -0.157985
 4885 Fit      -0.157047
 4886 Fit      -0.157257
 4887 Fit      -0.158233
 4888 Fit      -0.159708
 4889 Fit      -0.161431
 4890 Fit      -0.163094
 4891 Fit      -0.164261
 4892 Fit      -0.164350
 4893 Fit      -0.161846
 4894 Fit      -0.162070
 4895 Fit      -0.159555
 4896 Fit      -0.158262
 4897 Fit      -0.158412
 4898 Fit      -0.159490
 4899 Fit      -0.160840
 4900 Fit      -0.161679
 4901 Fit      -0.161287
 4902 Fit      -0.159932
 4903 Fit      -0.159672
 4904 Fit      -0.160358
 4905 Fit      -0.160303
 4906 Fit      -0.159145
 4907 Fit      -0.159437
 4908 Fit      -0.160134
 4909 Fit      -0.159862
 4910 Fit      -0.159662
 4911 Fit      -0.147347
 4912 Fit      -0.144274
 4913 Fit      -0.145660
 4914 Fit      -0.149128
 4915 Fit      -0.150588
 4916 Fit      -0.148725
 4917 Fit      -0.145817
 4918 Fit      -0.141240
 4919 Fit      -0.141575
 4920 Fit      -0.151453
 4921 Fit      -0.153960
 4922 Fit      -0.154084
 4923 Fit      -0.152422
 4924 Fit      -0.149853
 4925 Fit      -0.147023
 4926 Fit      -0.144360
 4927 Fit      -0.142277
 4928 Fit      -0.138046
 4929 Fit      -0.158747
 4930 Fit      -0.157887
 4931 Fit      -0.155954
 4932 Fit      -0.153476
 4933 Fit      -0.150780
 4934 Fit      -0.148053
 4935 Fit      -0.145393
 4936 Fit      -0.142869
 4937 Fit      -0.140620
 4938 Fit      -0.138919
 4939 Fit      -0.134363
 4940 Fit      -0.163835
 4941 Fit      -0.162021
 4942 Fit      -0.159627
 4943 Fit      -0.156980
 4944 Fit      -0.154257
 4945 Fit      -0.151551
 4946 Fit      -0.148905
 4947 Fit      -0.146326
 4948 Fit      -0.143794
 4949 Fit      -0.141290
 4950 Fit      -0.138859
 4951 Fit      -0.136684
 4952 Fit      -0.135095
 4953 Fit      -0.170650
 4954 Fit      -0.167976
 4955 Fit      -0.164952
 4956 Fit      -0.161867
 4957 Fit      -0.158843
 4958 Fit      -0.155922
 4959 Fit      -0.153114
 4960 Fit      -0.150418
 4961 Fit      -0.147814
 4962 Fit      -0.145263
 4963 Fit      -0.142701
 4964 Fit      -0.140062
 4965 Fit      -0.137310
 4966 Fit      -0.134524
 4967 Fit      -0.177597
 4968 Fit      -0.173321
 4969 Fit      -0.169220
 4970 Fit      -0.165423
 4971 Fit      -0.161924
 4972 Fit      -0.158677
 4973 Fit      -0.155639
 4974 Fit      -0.152772
 4975 Fit      -0.150043
 4976 Fit      -0.147410
 4977 Fit      -0.144812
 4978 Fit      -0.142163
 4979 Fit      -0.139355
 4980 Fit      -0.136274
 4981 Fit      -0.132852
 4982 Fit      -0.178924
 4983 Fit      -0.173661
 4984 Fit      -0.169103
 4985 Fit      -0.165099
 4986 Fit      -0.161513
 4987 Fit      -0.158238
 4988 Fit      -0.155201
 4989 Fit      -0.152348
 4990 Fit      -0.149633
 4991 Fit      -0.147004
 4992 Fit      -0.144391
 4993 Fit      -0.141695
 4994 Fit      -0.138786
 4995 Fit      -0.135499
 4996 Fit      -0.131646
 4997 Fit      -0.181227
 4998 Fit      -0.175247
 4999 Fit      -0.170264
 5000 Fit      -0.165996
 5001 Fit      -0.162236
 5002 Fit      -0.158841
 5003 Fit      -0.155717
 5004 Fit      -0.152796
 5005 Fit      -0.150024
 5006 Fit      -0.147344
 5007 Fit      -0.144683
 5008 Fit      -0.141942
 5009 Fit      -0.138985
 5010 Fit      -0.135626
 5011 Fit      -0.131613
 5012 Fit      -0.182237
 5013 Fit      -0.175712
 5014 Fit      -0.170396
 5015 Fit      -0.165905
 5016 Fit      -0.161980
 5017 Fit      -0.158455
 5018 Fit      -0.155219
 5019 Fit      -0.152193
 5020 Fit      -0.149312
 5021 Fit      -0.146504
 5022 Fit      -0.143678
 5023 Fit      -0.140709
 5024 Fit      -0.137423
 5025 Fit      -0.133570
 5026 Fit      -0.128790
 5027 Fit      -0.190586
 5028 Fit      -0.182018
 5029 Fit      -0.175362
 5030 Fit      -0.169971
 5031 Fit      -0.165425
 5032 Fit      -0.161455
 5033 Fit      -0.157886
 5034 Fit      -0.154604
 5035 Fit      -0.151523
 5036 Fit      -0.148570
 5037 Fit      -0.145662
 5038 Fit      -0.142691
 5039 Fit      -0.139512
 5040 Fit      -0.135919
 5041 Fit      -0.131618
 5042 Fit      -0.184534
 5043 Fit      -0.177143
 5044 Fit      -0.171269
 5045 Fit      -0.166391
 5046 Fit      -0.162179
 5047 Fit      -0.158424
 5048 Fit      -0.154988
 5049 Fit      -0.151771
 5050 Fit      -0.148685
 5051 Fit      -0.145639
 5052 Fit      -0.142516
 5053 Fit      -0.139158
 5054 Fit      -0.135349
 5055 Fit      -0.130776
 5056 Fit      -0.191010
 5057 Fit      -0.181818
 5058 Fit      -0.174785
 5059 Fit      -0.169134
 5060 Fit      -0.164388
 5061 Fit      -0.160246
 5062 Fit      -0.156513
 5063 Fit      -0.153057
 5064 Fit      -0.149771
 5065 Fit      -0.146553
 5066 Fit      -0.143280
 5067 Fit      -0.139796
 5068 Fit      -0.135887
 5069 Fit      -0.131261
 5070 Fit      -0.186669
 5071 Fit      -0.178405
 5072 Fit      -0.171944
 5073 Fit      -0.166650
 5074 Fit      -0.162124
 5075 Fit      -0.158112
 5076 Fit      -0.154441
 5077 Fit      -0.150984
 5078 Fit      -0.147627
 5079 Fit      -0.144246
 5080 Fit      -0.140690
 5081 Fit      -0.136765
 5082 Fit      -0.132216
 5083 Fit      -0.126721
 5084 Fit      -0.181194
 5085 Fit      -0.173798
 5086 Fit      -0.167873
 5087 Fit      -0.162898
 5088 Fit      -0.158543
 5089 Fit      -0.154589
 5090 Fit      -0.150872
 5091 Fit      -0.147252
 5092 Fit      -0.143577
 5093 Fit      -0.139670
 5094 Fit      -0.135308
 5095 Fit      -0.130226
 5096 Fit      -0.124138
 5097 Fit      -0.178851
 5098 Fit      -0.171491
 5099 Fit      -0.165547
 5100 Fit      -0.160507
 5101 Fit      -0.156037
 5102 Fit      -0.151905
 5103 Fit      -0.147922
 5104 Fit      -0.143904
 5105 Fit      -0.139647
 5106 Fit      -0.134914
 5107 Fit      -0.129456
 5108 Fit      -0.184644
 5109 Fit      -0.175648
 5110 Fit      -0.168563
 5111 Fit      -0.162727
 5112 Fit      -0.157682
 5113 Fit      -0.153108
 5114 Fit      -0.148762
 5115 Fit      -0.144425
 5116 Fit      -0.139877
 5117 Fit      -0.134892
 5118 Fit      -0.129284
 5119 Fit      -0.175237
 5120 Fit      -0.167744
 5121 Fit      -0.161522
 5122 Fit      -0.156110
 5123 Fit      -0.151154
 5124 Fit      -0.146367
 5125 Fit      -0.141500
 5126 Fit      -0.136348
 5127 Fit      -0.130815
 5128 Fit      -0.169531
 5129 Fit      -0.162297
 5130 Fit      -0.156018
 5131 Fit      -0.150313
 5132 Fit      -0.144853
 5133 Fit      -0.139444
 5134 Fit      -0.163122
 5135 Fit      -0.155862
 5136 Fit      -0.149302
 5137 Fit      -0.143479
 -----------------------------------------------------------------
 Leave Link  602 at Mon Feb  5 16:17:04 2024, MaxMem=   104857600 cpu:               0.4 elap:               0.4

 Test job not archived.
 1\1\GINC-TERPSICHORE\SP\RHF\6-31G(d)\C4H6N1O4(1-)\MASTER9\05-Feb-2024\
 0\\#HF/6-31G* scrf=smd SCF=tight Test Pop=MK iop(6/33=2) iop(6/42=6) #
  iop(6/50=1)\\calc RESP charges\\-1,1\C,0,1.934372,-0.068501,0.091594\
 O,0,2.184896,0.873093,0.789534\O,0,2.940405,-0.743066,-0.451375\H,0,2.
 636755,-1.472609,-0.985525\C,0,0.5545,-0.591077,-0.206322\C,0,-0.56623
 4,0.342687,0.230624\H,0,0.476166,-1.54469,0.302571\H,0,0.488516,-0.790
 39,-1.271046\N,0,-0.514371,1.584038,-0.530754\H,0,0.218569,2.162204,-0
 .167229\H,0,-1.37329,2.076458,-0.384744\C,0,-1.940918,-0.329898,0.0878
 21\H,0,-0.457291,0.518258,1.301005\O,0,-2.902408,0.396705,-0.210655\O,
 0,-2.007787,-1.546327,0.334741\\Version=EM64L-G16RevC.01\State=1-A\HF=
 -509.0403327\RMSD=9.110e-09\Dipole=3.8542655,-0.2278663,-0.5808097\Qua
 drupole=-21.9078949,9.7858379,12.122057,-11.3680627,-5.7439167,3.83919
 15\PG=C01 [X(C4H6N1O4)]\\@


 LET US LEARN TO DREAM, GENTLEMEN, THEN PERHAPS WE SHALL
 DISCOVER THE TRUTH;  BUT LET US BEWARE OF PUBLISHING
 OUR DREAMS ABROAD BEFORE THEY HAVE BEEN SCRUTINIZED
 BY OUR VIGILANT INTELLECT ... LET US ALWAYS ALLOW
 THE FRUIT TO HANG UNTIL IT IS RIPE.  UNRIPE FRUIT
 BRINGS EVEN THE GROWER BUT LITTLE PROFIT; IT DAMAGES
 THE HEALTH OF THOSE WHO CONSUME IT; IT ENDANGERS
 PARTICULARLY THE YOUTH WHO CANNOT YET DISTINGUISH
 BETWEEN RIPE AND UNRIPE FRUIT.

                                  -- KEKULE, 1890
 Job cpu time:       0 days  0 hours  0 minutes 17.6 seconds.
 Elapsed time:       0 days  0 hours  0 minutes 17.7 seconds.
 File lengths (MBytes):  RWF=     33 Int=      0 D2E=      0 Chk=      3 Scr=      1
 Normal termination of Gaussian 16 at Mon Feb  5 16:17:04 2024.
