 Entering Gaussian System, Link 0=g16
 Input=ASH_gresp.com
 Output=ASH_gresp.log
 Initial command:
 /usr/local/gaussian/gaussian16.c01-legacy/g16/l1.exe "/scratch/master9/Gau-3421470.inp" -scrdir="/scratch/master9/"
 Entering Link 1 = /usr/local/gaussian/gaussian16.c01-legacy/g16/l1.exe PID=   3421471.
  
 Copyright (c) 1988-2019, Gaussian, Inc.  All Rights Reserved.
  
 This is part of the Gaussian(R) 16 program.  It is based on
 the Gaussian(R) 09 system (copyright 2009, Gaussian, Inc.),
 the Gaussian(R) 03 system (copyright 2003, Gaussian, Inc.),
 the Gaussian(R) 98 system (copyright 1998, Gaussian, Inc.),
 the Gaussian(R) 94 system (copyright 1995, Gaussian, Inc.),
 the Gaussian 92(TM) system (copyright 1992, Gaussian, Inc.),
 the Gaussian 90(TM) system (copyright 1990, Gaussian, Inc.),
 the Gaussian 88(TM) system (copyright 1988, Gaussian, Inc.),
 the Gaussian 86(TM) system (copyright 1986, Carnegie Mellon
 University), and the Gaussian 82(TM) system (copyright 1983,
 Carnegie Mellon University). Gaussian is a federally registered
 trademark of Gaussian, Inc.
  
 This software contains proprietary and confidential information,
 including trade secrets, belonging to Gaussian, Inc.
  
 This software is provided under written license and may be
 used, copied, transmitted, or stored only in accord with that
 written license.
  
 The following legend is applicable only to US Government
 contracts under FAR:
  
                    RESTRICTED RIGHTS LEGEND
  
 Use, reproduction and disclosure by the US Government is
 subject to restrictions as set forth in subparagraphs (a)
 and (c) of the Commercial Computer Software - Restricted
 Rights clause in FAR 52.227-19.
  
 Gaussian, Inc.
 340 Quinnipiac St., Bldg. 40, Wallingford CT 06492
  
  
 ---------------------------------------------------------------
 Warning -- This program may not be used in any manner that
 competes with the business of Gaussian, Inc. or will provide
 assistance to any competitor of Gaussian, Inc.  The licensee
 of this program is prohibited from giving any competitor of
 Gaussian, Inc. access to this program.  By using this program,
 the user acknowledges that Gaussian, Inc. is engaged in the
 business of creating and licensing software in the field of
 computational chemistry and represents and warrants to the
 licensee that it is not a competitor of Gaussian, Inc. and that
 it will not use this program in any manner prohibited above.
 ---------------------------------------------------------------
  

 Cite this work as:
 Gaussian 16, Revision C.01,
 M. J. Frisch, G. W. Trucks, H. B. Schlegel, G. E. Scuseria, 
 M. A. Robb, J. R. Cheeseman, G. Scalmani, V. Barone, 
 G. A. Petersson, H. Nakatsuji, X. Li, M. Caricato, A. V. Marenich, 
 J. Bloino, B. G. Janesko, R. Gomperts, B. Mennucci, H. P. Hratchian, 
 J. V. Ortiz, A. F. Izmaylov, J. L. Sonnenberg, D. Williams-Young, 
 F. Ding, F. Lipparini, F. Egidi, J. Goings, B. Peng, A. Petrone, 
 T. Henderson, D. Ranasinghe, V. G. Zakrzewski, J. Gao, N. Rega, 
 G. Zheng, W. Liang, M. Hada, M. Ehara, K. Toyota, R. Fukuda, 
 J. Hasegawa, M. Ishida, T. Nakajima, Y. Honda, O. Kitao, H. Nakai, 
 T. Vreven, K. Throssell, J. A. Montgomery, Jr., J. E. Peralta, 
 F. Ogliaro, M. J. Bearpark, J. J. Heyd, E. N. Brothers, K. N. Kudin, 
 V. N. Staroverov, T. A. Keith, R. Kobayashi, J. Normand, 
 K. Raghavachari, A. P. Rendell, J. C. Burant, S. S. Iyengar, 
 J. Tomasi, M. Cossi, J. M. Millam, M. Klene, C. Adamo, R. Cammi, 
 J. W. Ochterski, R. L. Martin, K. Morokuma, O. Farkas, 
 J. B. Foresman, and D. J. Fox, Gaussian, Inc., Wallingford CT, 2019.
 
 ******************************************
 Gaussian 16:  EM64L-G16RevC.01  3-Jul-2019
                 5-Feb-2024 
 ******************************************
 %chk=ASH_gesp
 ----------------------------------------------------------------------
 #HF/6-31G* scrf=smd SCF=tight Test Pop=MK iop(6/33=2) iop(6/42=6) # io
 p(6/50=1)
 ----------------------------------------------------------------------
 1/38=1,172=1/1;
 2/12=2,17=6,18=5,40=1/2;
 3/5=1,6=6,7=1,11=9,25=1,30=1,70=32201/1,2,3;
 4//1;
 5/5=2,32=2,38=5/2;
 6/7=2,8=2,9=2,10=2,15=8,20=1,28=1,33=2,42=6,50=1/1,2;
 99/5=1,9=1/99;
 -----------------
 calc RESP charges
 -----------------
 Symbolic Z-matrix:
 Charge =  0 Multiplicity = 1
 C                     1.94501  -0.12255   0.04305 
 O                     2.22356   0.71199   0.85459 
 O                     2.91706  -0.80858  -0.53642 
 H                     2.59108  -1.45576  -1.15711 
 C                     0.54401  -0.48335  -0.37788 
 C                    -0.52414   0.39088   0.28476 
 H                     0.40618  -1.53095  -0.12855 
 H                     0.47871  -0.39823  -1.45727 
 N                    -0.47517   1.74076  -0.24086 
 H                     0.38501   2.16179   0.05459 
 H                    -1.21068   2.2841    0.17202 
 C                    -1.88911  -0.21491   0.00497 
 H                    -0.3836    0.3473    1.36152 
 O                    -2.6849    0.23607  -0.76329 
 O                    -2.18969  -1.32038   0.67064 
 H                    -1.52336  -1.56681   1.30724 
 
                          Input orientation:                          
 ---------------------------------------------------------------------
 Center     Atomic      Atomic             Coordinates (Angstroms)
 Number     Number       Type             X           Y           Z
 ---------------------------------------------------------------------
      1          6           0        1.945005   -0.122547    0.043048
      2          8           0        2.223559    0.711988    0.854591
      3          8           0        2.917058   -0.808580   -0.536420
      4          1           0        2.591082   -1.455762   -1.157105
      5          6           0        0.544005   -0.483345   -0.377877
      6          6           0       -0.524136    0.390879    0.284763
      7          1           0        0.406177   -1.530946   -0.128551
      8          1           0        0.478714   -0.398226   -1.457271
      9          7           0       -0.475166    1.740759   -0.240857
     10          1           0        0.385013    2.161785    0.054592
     11          1           0       -1.210682    2.284098    0.172020
     12          6           0       -1.889110   -0.214910    0.004967
     13          1           0       -0.383597    0.347296    1.361518
     14          8           0       -2.684896    0.236069   -0.763292
     15          8           0       -2.189693   -1.320379    0.670639
     16          1           0       -1.523360   -1.566807    1.307245
 ---------------------------------------------------------------------
                    Distance matrix (angstroms):
                    1          2          3          4          5
     1  C    0.000000
     2  O    1.196931   0.000000
     3  O    1.323371   2.174392   0.000000
     4  H    1.906632   2.980123   0.954125   0.000000
     5  C    1.506703   2.401812   2.400478   2.396522   0.000000
     6  C    2.533513   2.824472   3.735620   3.897903   1.531106
     7  H    2.093090   3.049623   2.644370   2.416068   1.085646
     8  H    2.115884   3.101897   2.638537   2.381298   1.084712
     9  N    3.067530   3.088931   4.253666   4.523177   2.450331
    10  H    2.766203   2.474300   3.947609   4.406994   2.684962
    11  H    3.970760   3.838156   5.206225   5.496047   3.322658
    12  C    3.835416   4.300587   4.872863   4.791894   2.477635
    13  H    2.716892   2.680902   3.979013   4.294554   2.139136
    14  O    4.713255   5.190084   5.703039   5.554577   3.330451
    15  O    4.350218   4.862216   5.272365   5.120038   3.045179
    16  H    3.964043   4.408764   4.867373   4.797289   2.878806
                    6          7          8          9         10
     6  C    0.000000
     7  H    2.174792   0.000000
     8  H    2.159416   1.747516   0.000000
     9  N    1.449431   3.390196   2.639092   0.000000
    10  H    2.003906   3.697330   2.974587   1.002228   0.000000
    11  H    2.017011   4.154412   3.564198   1.003329   1.604678
    12  C    1.519349   2.649173   2.788967   2.425759   3.289799
    13  H    1.086762   2.524251   3.040552   2.125495   2.364569
    14  O    2.406506   3.616624   3.300358   2.723956   3.715058
    15  O    2.418963   2.724258   3.535359   3.625051   4.374253
    16  H    2.424140   2.405392   3.607829   3.799385   4.371890
                   11         12         13         14         15
    11  H    0.000000
    12  C    2.594843   0.000000
    13  H    2.418714   2.103063   0.000000
    14  O    2.691196   1.194521   3.134193   0.000000
    15  O    3.768201   1.324965   2.553515   2.173457   0.000000
    16  H    4.026906   1.912414   2.228407   2.981049   0.953936
                   16
    16  H    0.000000
 Stoichiometry    C4H7NO4
 Framework group  C1[X(C4H7NO4)]
 Deg. of freedom    42
 Full point group                 C1      NOp   1
 Largest Abelian subgroup         C1      NOp   1
 Largest concise Abelian subgroup C1      NOp   1
                         Standard orientation:                         
 ---------------------------------------------------------------------
 Center     Atomic      Atomic             Coordinates (Angstroms)
 Number     Number       Type             X           Y           Z
 ---------------------------------------------------------------------
      1          6           0        1.945005   -0.122547    0.043048
      2          8           0        2.223559    0.711988    0.854591
      3          8           0        2.917058   -0.808580   -0.536420
      4          1           0        2.591082   -1.455762   -1.157105
      5          6           0        0.544005   -0.483345   -0.377877
      6          6           0       -0.524136    0.390879    0.284763
      7          1           0        0.406177   -1.530946   -0.128551
      8          1           0        0.478714   -0.398226   -1.457271
      9          7           0       -0.475166    1.740759   -0.240857
     10          1           0        0.385013    2.161785    0.054592
     11          1           0       -1.210682    2.284098    0.172020
     12          6           0       -1.889110   -0.214910    0.004967
     13          1           0       -0.383597    0.347296    1.361518
     14          8           0       -2.684896    0.236069   -0.763292
     15          8           0       -2.189693   -1.320379    0.670639
     16          1           0       -1.523360   -1.566807    1.307245
 ---------------------------------------------------------------------
 Rotational constants (GHZ):           3.2461576           0.9022283           0.8032488
 Standard basis: 6-31G(d) (6D, 7F)
 There are   149 symmetry adapted cartesian basis functions of A   symmetry.
 There are   149 symmetry adapted basis functions of A   symmetry.
   149 basis functions,   280 primitive gaussians,   149 cartesian basis functions
    35 alpha electrons       35 beta electrons
       nuclear repulsion energy       467.0778092791 Hartrees.
 NAtoms=   16 NActive=   16 NUniq=   16 SFac= 1.00D+00 NAtFMM=   60 NAOKFM=F Big=F
 Integral buffers will be    131072 words long.
 Raffenetti 1 integral format.
 Two-electron integral symmetry is turned on.
 ------------------------------------------------------------------------------
 Polarizable Continuum Model (PCM)
 =================================
 Model                : PCM.
 Atomic radii         : SMD-Coulomb.
 Polarization charges : Total charges.
 Charge compensation  : None.
 Solution method      : On-the-fly selection.
 Cavity type          : VdW (van der Waals Surface) (Alpha=1.000).
 Cavity algorithm     : GePol (No added spheres)
                        Default sphere list used, NSphG=   16.
                        Lebedev-Laikov grids with approx.  5.0 points / Ang**2.
                        Smoothing algorithm: York/Karplus (Gamma=1.0000).
                        Polarization charges: spherical gaussians, with
                                              point-specific exponents (IZeta= 3).
                        Self-potential: point-specific (ISelfS= 7).
                        Self-field    : sphere-specific E.n sum rule (ISelfD= 2).
 Solvent              : Water, Eps=  78.355300 Eps(inf)=   1.777849
 ------------------------------------------------------------------------------
 Spheres list:
 ISph  on   Nord     Re0    Alpha      Xe            Ye            Ze
    1   C      1    1.8500  1.000      1.945005     -0.122547      0.043048
    2   O      2    1.5200  1.000      2.223559      0.711988      0.854591
    3   O      3    1.5200  1.000      2.917058     -0.808580     -0.536420
    4   H      4    1.2000  1.000      2.591082     -1.455762     -1.157105
    5   C      5    1.8500  1.000      0.544005     -0.483345     -0.377877
    6   C      6    1.8500  1.000     -0.524136      0.390879      0.284763
    7   H      7    1.2000  1.000      0.406177     -1.530946     -0.128551
    8   H      8    1.2000  1.000      0.478714     -0.398226     -1.457271
    9   N      9    1.8900  1.000     -0.475166      1.740759     -0.240857
   10   H     10    1.2000  1.000      0.385013      2.161785      0.054592
   11   H     11    1.2000  1.000     -1.210682      2.284098      0.172020
   12   C     12    1.8500  1.000     -1.889110     -0.214910      0.004967
   13   H     13    1.2000  1.000     -0.383597      0.347296      1.361518
   14   O     14    1.5200  1.000     -2.684896      0.236069     -0.763292
   15   O     15    1.5200  1.000     -2.189693     -1.320379      0.670639
   16   H     16    1.2000  1.000     -1.523360     -1.566807      1.307245
 ------------------------------------------------------------------------------
 ------------------------------------------------------------------------------
 Atomic radii for non-electrostatic terms: SMD-CDS.
 ------------------------------------------------------------------------------
 Nuclear repulsion after PCM non-electrostatic terms =      467.0861079589 Hartrees.
 One-electron integrals computed using PRISM.
 NBasis=   149 RedAO= T EigKep=  2.28D-03  NBF=   149
 NBsUse=   149 1.00D-06 EigRej= -1.00D+00 NBFU=   149
 ExpMin= 1.61D-01 ExpMax= 5.48D+03 ExpMxC= 8.25D+02 IAcc=3 IRadAn=         5 AccDes= 0.00D+00
 Harris functional with IExCor=  205 and IRadAn=       5 diagonalized for initial guess.
 HarFok:  IExCor=  205 AccDes= 0.00D+00 IRadAn=         5 IDoV= 1 UseB2=F ITyADJ=14
 ICtDFT=  3500011 ScaDFX=  1.000000  1.000000  1.000000  1.000000
 FoFCou: FMM=F IPFlag=           0 FMFlag=      100000 FMFlg1=           0
         NFxFlg=           0 DoJE=T BraDBF=F KetDBF=T FulRan=T
         wScrn=  0.000000 ICntrl=       500 IOpCl=  0 I1Cent=   200000004 NGrid=           0
         NMat0=    1 NMatS0=      1 NMatT0=    0 NMatD0=    1 NMtDS0=    0 NMtDT0=    0
 Petite list used in FoFCou.
 Keep R1 ints in memory in canonical form, NReq=64134755.
 Requested convergence on RMS density matrix=1.00D-08 within 128 cycles.
 Requested convergence on MAX density matrix=1.00D-06.
 Requested convergence on             energy=1.00D-06.
 No special actions if energy rises.
 Inv3:  Mode=1 IEnd=     4241163.
 Iteration    1 A*A^-1 deviation from unit magnitude is 5.33D-15 for     57.
 Iteration    1 A*A^-1 deviation from orthogonality  is 5.14D-15 for   1048    283.
 Iteration    1 A^-1*A deviation from unit magnitude is 5.55D-15 for     57.
 Iteration    1 A^-1*A deviation from orthogonality  is 9.29D-15 for    949    937.
 Error on total polarization charges =  0.02772
 SCF Done:  E(RHF) =  -509.505478854     A.U. after   13 cycles
            NFock= 13  Conv=0.76D-08     -V/T= 2.0021
 SMD-CDS (non-electrostatic) energy       (kcal/mol) =       5.21
 (included in total energy above)
 SCF density gives NOpUse=  1 NOpAll=  1.

 **********************************************************************

            Population analysis using the SCF Density.

 **********************************************************************

 Orbital symmetries:
 BldTbl:  Degeneracy threshold= 1.00D-02
       Occupied  (A) (A) (A) (A) (A) (A) (A) (A) (A) (A) (A) (A)
                 (A) (A) (A) (A) (A) (A) (A) (A) (A) (A) (A) (A)
                 (A) (A) (A) (A) (A) (A) (A) (A) (A) (A) (A)
       Virtual   (A) (A) (A) (A) (A) (A) (A) (A) (A) (A) (A) (A)
                 (A) (A) (A) (A) (A) (A) (A) (A) (A) (A) (A) (A)
                 (A) (A) (A) (A) (A) (A) (A) (A) (A) (A) (A) (A)
                 (A) (A) (A) (A) (A) (A) (A) (A) (A) (A) (A) (A)
                 (A) (A) (A) (A) (A) (A) (A) (A) (A) (A) (A) (A)
                 (A) (A) (A) (A) (A) (A) (A) (A) (A) (A) (A) (A)
                 (A) (A) (A) (A) (A) (A) (A) (A) (A) (A) (A) (A)
                 (A) (A) (A) (A) (A) (A) (A) (A) (A) (A) (A) (A)
                 (A) (A) (A) (A) (A) (A) (A) (A) (A) (A) (A) (A)
                 (A) (A) (A) (A) (A) (A)
 The electronic state is 1-A.
 Alpha  occ. eigenvalues --  -20.61838 -20.61833 -20.56312 -20.56213 -15.54459
 Alpha  occ. eigenvalues --  -11.39865 -11.39420 -11.27924 -11.24774  -1.47987
 Alpha  occ. eigenvalues --   -1.47869  -1.37776  -1.37700  -1.20270  -1.04965
 Alpha  occ. eigenvalues --   -0.93409  -0.84665  -0.83266  -0.73370  -0.72467
 Alpha  occ. eigenvalues --   -0.69407  -0.67562  -0.66278  -0.65004  -0.63974
 Alpha  occ. eigenvalues --   -0.61773  -0.58336  -0.56215  -0.53832  -0.53202
 Alpha  occ. eigenvalues --   -0.49167  -0.48822  -0.46910  -0.44991  -0.40631
 Alpha virt. eigenvalues --    0.18020   0.18704   0.22650   0.24428   0.26370
 Alpha virt. eigenvalues --    0.30931   0.32497   0.34699   0.34925   0.39135
 Alpha virt. eigenvalues --    0.40957   0.44921   0.46299   0.50391   0.54457
 Alpha virt. eigenvalues --    0.54667   0.62131   0.73687   0.76737   0.77792
 Alpha virt. eigenvalues --    0.78363   0.80019   0.84909   0.86547   0.91259
 Alpha virt. eigenvalues --    0.92355   0.94112   0.95736   0.98178   0.98731
 Alpha virt. eigenvalues --    1.02948   1.03891   1.04709   1.08613   1.09543
 Alpha virt. eigenvalues --    1.11801   1.14988   1.17731   1.18474   1.20582
 Alpha virt. eigenvalues --    1.21243   1.22711   1.24841   1.26556   1.27102
 Alpha virt. eigenvalues --    1.29734   1.30027   1.32303   1.35331   1.38452
 Alpha virt. eigenvalues --    1.39573   1.44903   1.51639   1.56070   1.62084
 Alpha virt. eigenvalues --    1.66281   1.67091   1.68883   1.73470   1.77310
 Alpha virt. eigenvalues --    1.82770   1.88856   1.93494   1.97512   1.98253
 Alpha virt. eigenvalues --    2.01212   2.04537   2.05029   2.07776   2.08487
 Alpha virt. eigenvalues --    2.10299   2.11569   2.13175   2.15008   2.19121
 Alpha virt. eigenvalues --    2.23373   2.27488   2.29010   2.31366   2.31758
 Alpha virt. eigenvalues --    2.36095   2.40067   2.45126   2.51016   2.59514
 Alpha virt. eigenvalues --    2.65227   2.71004   2.75403   2.78000   2.81619
 Alpha virt. eigenvalues --    2.84981   2.87889   2.90760   2.96431   2.97603
 Alpha virt. eigenvalues --    2.97752   3.06080   3.10310   3.15480   3.23662
 Alpha virt. eigenvalues --    3.25210   3.36893   3.37978   3.47707   3.50444
 Alpha virt. eigenvalues --    4.19365   4.29501   4.38736   4.51090   4.54090
 Alpha virt. eigenvalues --    4.66328   4.79077   4.90557   5.08570
          Condensed to atoms (all electrons):
               1          2          3          4          5          6
     1  C    3.989301   0.582139   0.316306  -0.017663   0.380883  -0.039010
     2  O    0.582139   8.210864  -0.078196   0.002875  -0.092079   0.007688
     3  O    0.316306  -0.078196   8.321947   0.257472  -0.087382   0.003367
     4  H   -0.017663   0.002875   0.257472   0.225853   0.001989   0.000163
     5  C    0.380883  -0.092079  -0.087382   0.001989   5.413591   0.268042
     6  C   -0.039010   0.007688   0.003367   0.000163   0.268042   5.139989
     7  H   -0.024179   0.001207   0.000351   0.000098   0.372260  -0.031325
     8  H   -0.025403   0.001168   0.000987   0.000286   0.371883  -0.032390
     9  N   -0.001050  -0.004350  -0.000077  -0.000002  -0.067579   0.258337
    10  H    0.001838   0.009034   0.000012  -0.000011  -0.006502  -0.027192
    11  H   -0.000095   0.000079   0.000002   0.000000   0.005545  -0.035958
    12  C    0.002724   0.000166  -0.000038  -0.000011  -0.031291   0.354549
    13  H   -0.003493   0.003786   0.000093  -0.000006  -0.046049   0.412289
    14  O   -0.000056  -0.000000   0.000000   0.000000   0.000208  -0.083097
    15  O   -0.000053   0.000001  -0.000000  -0.000000   0.000768  -0.088765
    16  H   -0.000058  -0.000004  -0.000001  -0.000000  -0.000568   0.003105
               7          8          9         10         11         12
     1  C   -0.024179  -0.025403  -0.001050   0.001838  -0.000095   0.002724
     2  O    0.001207   0.001168  -0.004350   0.009034   0.000079   0.000166
     3  O    0.000351   0.000987  -0.000077   0.000012   0.000002  -0.000038
     4  H    0.000098   0.000286  -0.000002  -0.000011   0.000000  -0.000011
     5  C    0.372260   0.371883  -0.067579  -0.006502   0.005545  -0.031291
     6  C   -0.031325  -0.032390   0.258337  -0.027192  -0.035958   0.354549
     7  H    0.425006  -0.012632   0.002910   0.000003  -0.000076  -0.003884
     8  H   -0.012632   0.432160   0.005155  -0.000141  -0.000113  -0.003741
     9  N    0.002910   0.005155   7.134720   0.322556   0.330726  -0.054140
    10  H    0.000003  -0.000141   0.322556   0.334382  -0.019873   0.004467
    11  H   -0.000076  -0.000113   0.330726  -0.019873   0.342277  -0.002949
    12  C   -0.003884  -0.003741  -0.054140   0.004467  -0.002949   4.074649
    13  H    0.001662   0.003765  -0.038900  -0.001950  -0.001476  -0.051102
    14  O    0.000045   0.000809   0.002074   0.000141   0.003553   0.604217
    15  O    0.003775   0.000260   0.002362  -0.000062   0.000126   0.295745
    16  H    0.001095   0.000037   0.000068  -0.000011  -0.000019  -0.017022
              13         14         15         16
     1  C   -0.003493  -0.000056  -0.000053  -0.000058
     2  O    0.003786  -0.000000   0.000001  -0.000004
     3  O    0.000093   0.000000  -0.000000  -0.000001
     4  H   -0.000006   0.000000  -0.000000  -0.000000
     5  C   -0.046049   0.000208   0.000768  -0.000568
     6  C    0.412289  -0.083097  -0.088765   0.003105
     7  H    0.001662   0.000045   0.003775   0.001095
     8  H    0.003765   0.000809   0.000260   0.000037
     9  N   -0.038900   0.002074   0.002362   0.000068
    10  H   -0.001950   0.000141  -0.000062  -0.000011
    11  H   -0.001476   0.003553   0.000126  -0.000019
    12  C   -0.051102   0.604217   0.295745  -0.017022
    13  H    0.481767   0.001432   0.003364   0.001827
    14  O    0.001432   8.188478  -0.082937   0.002905
    15  O    0.003364  -0.082937   8.347047   0.254795
    16  H    0.001827   0.002905   0.254795   0.224746
 Mulliken charges:
               1
     1  C    0.837869
     2  O   -0.644379
     3  O   -0.734841
     4  H    0.528958
     5  C   -0.483718
     6  C   -0.109793
     7  H    0.263685
     8  H    0.257909
     9  N   -0.892810
    10  H    0.383309
    11  H    0.378253
    12  C    0.827660
    13  H    0.232992
    14  O   -0.637773
    15  O   -0.736426
    16  H    0.529106
 Sum of Mulliken charges =  -0.00000
 Mulliken charges with hydrogens summed into heavy atoms:
               1
     1  C    0.837869
     2  O   -0.644379
     3  O   -0.205884
     5  C    0.037876
     6  C    0.123199
     9  N   -0.131248
    12  C    0.827660
    14  O   -0.637773
    15  O   -0.207321
 DipInt: DoE/N= T F RetVal/Mat= T F Init=T NMatP=  1 IDeriv=0 Min/MaxMlt=  0  4
 Entering OneElI...
 OneElI was handed   104798213 working-precision words.
 Multipole integrals L=0 to 4 MinM= 0 MaxM= 0.
 Requested accuracy = 0.1000D-12
 ShPair: Thresh= 1.00D-13 NBox=     0 BxSize= 0.00D+00 RnKept= 1.08D+01
         NSMCal=                 1275 NSMKep=                1190
 PrmmSu-InSpLW:  IPartL=    0 NPrtUS=    1 NPrtUL=    1 DoSpLW=F IThBeg=    0 IThEnd=    0 NThAct=    1.
 PrSmSu:  IncTry=   512 NBBP=           1190 NTPThr=   100 NPartT=    1 Incr=          11 LDynOK=F GPUOK=F.
 PrsmSu:  NPrtUS=   1 ThrOK=F IAlg=2 LenDen=           0 ISkipM=0 DoSpLW=F IThBeg=    0 IThEnd=    0.
 Prism:   IPart=     0 DynPar=F LinDyn=F Incr=          11.
 PRISM was handed   104683769 working-precision words and  1190 shell-pairs
 IPart=  0 NShTot=        1190 NBatch=          49 AvBLen=        24.3
 PrsmSu-ThDecC:  IPartSL=    0    0 NPrtUSL=    1    1 IThBeg=    0 IThEnd=    0 CPU=   -1 GPU=   -1 NThAct=    1.
 PrSmSu:  NxtVal=             12.
 Electronic moments (au):
        -70.00000000          0.87489547         -1.83668645          0.62261657
      -1002.59226960       -264.47963653       -127.29563020         -5.59138485
        -11.71131147          2.28058310       -404.12091949       -199.05879378
        -12.22637691        141.57988094        520.28398275        168.39241892
          2.42722968         15.85407709        -31.70182682       -332.55080771
     -24221.58576625      -2737.21245635       -635.47548591        476.26812138
       -284.62170433        -93.04097773        221.06253983       -103.58463367
        -15.04762013      -2809.17984571      -2045.50043813       -439.32043915
       -164.99458916        318.43807255       -130.12238278
 Electronic spatial extent (au):  <R**2>=           1394.3675
 DipInt: DoE/N= F T RetVal/Mat= T F Init=T NMatP=  1 IDeriv=0 Min/MaxMlt=  0  4
 Nuclear    moments (au):
         70.00000000         -0.00000000         -0.00000000          0.00000000
        942.61701457        230.91852242         90.12808311          0.00000000
          0.00006136         -0.00002358        425.20681188        191.38717921
         16.52021732       -130.85930733       -531.73179118       -169.62798578
          3.35118833        -38.12912237         39.42543627        331.67804752
      20286.73504971       2036.35660026        281.94229080       -590.50212125
         82.51021972         24.73166252       -184.62024237         21.59269515
         18.45510572       2169.65936632       1448.78604220        258.93406165
        208.15362180       -389.78103873        113.39960711
 Total      moments (au):
          0.00000000          0.87489547         -1.83668645          0.62261657
        -59.97525503        -33.56111410        -37.16754709         -5.59138485
        -11.71125012          2.28055952         21.08589240         -7.67161456
          4.29384041         10.72057362        -11.44780844         -1.23556686
          5.77841801        -22.27504528          7.72360945         -0.87276019
      -3934.85071654       -700.85585610       -353.53319511       -114.23399987
       -202.11148461        -68.30931522         36.44229745        -81.99193852
          3.40748558       -639.52047938       -596.71439593       -180.38637750
         43.15903264        -71.34296618        -16.72277567
 Traceless Quadrup. (au):
        -16.40728295         10.00685797          6.40042498         -5.59138485
        -11.71125012          2.28055952
 Charge=              0.0000 electrons
 Dipole moment (field-independent basis, Debye):
    X=              2.2238    Y=             -4.6684    Z=              1.5825  Tot=              5.4077
 Quadrupole moment (field-independent basis, Debye-Ang):
   XX=            -80.6688   YY=            -45.1408   ZZ=            -49.9916
   XY=             -7.5206   XZ=            -15.7520   YZ=              3.0674
 Traceless Quadrupole moment (field-independent basis, Debye-Ang):
   XX=            -22.0684   YY=             13.4596   ZZ=              8.6088
   XY=             -7.5206   XZ=            -15.7520   YZ=              3.0674
 Octapole moment (field-independent basis, Debye-Ang**2):
  XXX=             15.0081  YYY=             -5.4604  ZZZ=              3.0562  XYY=              7.6305
  XXY=             -8.1481  XXZ=             -0.8794  XZZ=              4.1129  YZZ=            -15.8545
  YYZ=              5.4974  XYZ=             -0.6212
 Hexadecapole moment (field-independent basis, Debye-Ang**3):
 XXXX=          -1482.0535 YYYY=           -263.9759 ZZZZ=           -133.1576 XXXY=            -43.0260
 XXXZ=            -76.1249 YYYX=            -25.7286 YYYZ=             13.7259 ZZZX=            -30.8821
 ZZZY=              1.2834 XXYY=           -240.8741 XXZZ=           -224.7513 YYZZ=            -67.9422
 XXYZ=             16.2558 YYXZ=            -26.8712 ZZXY=             -6.2986
 N-N= 4.670861079589D+02 E-N=-2.133259806162D+03  KE= 5.084280663934D+02
 Entering OneElI...
 OneElI was handed   104808823 working-precision words.
 Calculate electrostatic properties
    NBasis =   149  MinDer = 0  MaxDer = 0
    NGrid  =    16  NMatD  =   1
 Requested accuracy = 0.1000D-12
 ShPair: Thresh= 1.00D-13 NBox=     0 BxSize= 0.00D+00 RnKept= 1.08D+01
         NSMCal=                 1275 NSMKep=                1148
 PrmmSu-InSpLW:  IPartL=    0 NPrtUS=    1 NPrtUL=    1 DoSpLW=F IThBeg=    0 IThEnd=    0 NThAct=    1.
 PrSmSu:  IncTry=   512 NBBP=          18368 NTPThr=   100 NPartT=    1 Incr=         183 LDynOK=F GPUOK=F.
 PrsmSu:  NPrtUS=   1 ThrOK=F IAlg=2 LenDen=           0 ISkipM=0 DoSpLW=F IThBeg=    0 IThEnd=    0.
 Prism:   IPart=     0 DynPar=F LinDyn=F Incr=         183.
 PRISM was handed   104700538 working-precision words and  1148 shell-pairs
 IPart=  0 NShTot=       18368 NBatch=        1148 AvBLen=        16.0
 PrsmSu-ThDecC:  IPartSL=    0    0 NPrtUSL=    1    1 IThBeg=    0 IThEnd=    0 CPU=   -1 GPU=   -1 NThAct=    1.
 PrSmSu:  NxtVal=            184.
 --------------------------------------------------------
       Center         ----      EFG at Nuclei      ----
                      3XX-RR        3YY-RR        3ZZ-RR
 --------------------------------------------------------
     1   Atom        0.307641     -0.140343     -0.167298
     2   Atom        1.473582     -0.704963     -0.768619
     3   Atom        0.156279     -0.197583      0.041304
     4   Atom        0.128405     -0.078279     -0.050126
     5   Atom       -0.116012      0.056950      0.059061
     6   Atom       -0.015247     -0.110916      0.126164
     7   Atom        0.128079     -0.261285      0.133206
     8   Atom        0.137598      0.159607     -0.297205
     9   Atom       -0.356822     -0.631798      0.988620
    10   Atom       -0.255071      0.066476      0.188595
    11   Atom       -0.133702     -0.000419      0.134122
    12   Atom        0.326995     -0.120456     -0.206539
    13   Atom        0.144643      0.135842     -0.280484
    14   Atom        0.171469      0.520133     -0.691602
    15   Atom        0.434609     -0.285258     -0.149351
    16   Atom       -0.113676      0.180383     -0.066707
 --------------------------------------------------------
                        XY            XZ            YZ
 --------------------------------------------------------
     1   Atom        0.117004      0.174223      0.437484
     2   Atom       -0.467038     -0.278544      0.017838
     3   Atom        0.423749      0.342331     -1.236786
     4   Atom       -0.155431     -0.151416     -0.327322
     5   Atom       -0.001204      0.000737     -0.037251
     6   Atom       -0.037878      0.011747      0.036019
     7   Atom       -0.053059      0.023533      0.101132
     8   Atom        0.005577     -0.024718      0.035738
     9   Atom        0.002383      0.131027      0.125958
    10   Atom       -0.215557     -0.155431     -0.080198
    11   Atom        0.235416      0.202762     -0.134326
    12   Atom        0.186583      0.352463     -0.257113
    13   Atom       -0.001841     -0.052895      0.018422
    14   Atom        1.157162     -0.347482     -0.402664
    15   Atom        0.051862     -0.539890      1.185272
    16   Atom        0.109516     -0.333024      0.138168
 --------------------------------------------------------


 ---------------------------------------------------------------------------------
              Nuclear Quadrupole Coupling Constant in Principal Axis System
 ---------------------------------------------------------------------------------

       Atom             a.u.   MegaHertz   Gauss  10(-4) cm-1        Axes

              Baa    -0.6417     3.082     1.100     1.028  0.0281  0.9965 -0.0792
     9 N(14)  Bbb    -0.3691     1.773     0.633     0.591  0.9951 -0.0354 -0.0927
              Bcc     1.0109    -4.855    -1.732    -1.619  0.0952  0.0762  0.9925
 

 ---------------------------------------------------------------------------------

 No NMR shielding tensors so no spin-rotation constants.
 Leave Link  601 at Mon Feb  5 16:05:04 2024, MaxMem=   104857600 cpu:               0.1 elap:               0.1
 FitSet:  NAtFit=    16 NAtPot=    16 NAtFrz=     0 MDM=    20 TotChg=   0.00000
 Merz-Kollman atomic radii used.
 Atom Element Radius
    1     6    1.50
    2     8    1.40
    3     8    1.40
    4     1    1.20
    5     6    1.50
    6     6    1.50
    7     1    1.20
    8     1    1.20
    9     7    1.50
   10     1    1.20
   11     1    1.20
   12     6    1.50
   13     1    1.20
   14     8    1.40
   15     8    1.40
   16     1    1.20
 Generate VDW surfaces: Layer= 4 Dens= 6 Start= 1.400 Inc= 0.200

 **********************************************************************

            Electrostatic Properties Using The SCF Density.

 **********************************************************************

       Atomic Center    1 is at   1.945005 -0.122547  0.043048
       Atomic Center    2 is at   2.223559  0.711988  0.854591
       Atomic Center    3 is at   2.917058 -0.808580 -0.536420
       Atomic Center    4 is at   2.591082 -1.455762 -1.157105
       Atomic Center    5 is at   0.544005 -0.483345 -0.377877
       Atomic Center    6 is at  -0.524136  0.390879  0.284763
       Atomic Center    7 is at   0.406177 -1.530946 -0.128551
       Atomic Center    8 is at   0.478714 -0.398226 -1.457271
       Atomic Center    9 is at  -0.475166  1.740759 -0.240857
       Atomic Center   10 is at   0.385013  2.161785  0.054592
       Atomic Center   11 is at  -1.210682  2.284098  0.172020
       Atomic Center   12 is at  -1.889110 -0.214910  0.004967
       Atomic Center   13 is at  -0.383597  0.347296  1.361518
       Atomic Center   14 is at  -2.684896  0.236069 -0.763292
       Atomic Center   15 is at  -2.189693 -1.320379  0.670639
       Atomic Center   16 is at  -1.523360 -1.566807  1.307245
      ESP Fit Center   17 is at   1.543188 -0.818515  1.983195
      ESP Fit Center   18 is at   1.945005 -0.926182  1.983195
      ESP Fit Center   19 is at   0.953059 -0.736734  1.789134
      ESP Fit Center   20 is at   1.241913 -1.053592  1.789134
      ESP Fit Center   21 is at   1.625723 -1.244706  1.789134
      ESP Fit Center   22 is at   2.052654 -1.284267  1.789134
      ESP Fit Center   23 is at   2.465047 -1.166932  1.789134
      ESP Fit Center   24 is at   1.328145 -1.473281  1.527972
      ESP Fit Center   25 is at   1.733678 -1.592357  1.527972
      ESP Fit Center   26 is at   2.156332 -1.592357  1.527972
      ESP Fit Center   27 is at   2.561865 -1.473281  1.527972
      ESP Fit Center   28 is at   2.917424 -1.244778  1.527972
      ESP Fit Center   29 is at   3.194203 -0.925358  1.527972
      ESP Fit Center   30 is at   1.734538 -1.855902  1.209746
      ESP Fit Center   31 is at   2.155473 -1.855902  1.209746
      ESP Fit Center   32 is at   2.564176 -1.755166  1.209746
      ESP Fit Center   33 is at   2.050043 -2.059849  0.846683
      ESP Fit Center   34 is at   3.201030  1.356160 -0.760587
      ESP Fit Center   35 is at   2.050043  1.814755 -0.760587
      ESP Fit Center   36 is at   3.251969  1.035322 -1.123649
      ESP Fit Center   37 is at   2.936895  1.314454 -1.123649
      ESP Fit Center   38 is at   2.564176  1.510072 -1.123649
      ESP Fit Center   39 is at   2.155473  1.610808 -1.123649
      ESP Fit Center   40 is at   1.734538  1.610808 -1.123649
      ESP Fit Center   41 is at   2.917424  0.999684 -1.441876
      ESP Fit Center   42 is at   2.561865  1.228188 -1.441876
      ESP Fit Center   43 is at   2.156332  1.347263 -1.441876
      ESP Fit Center   44 is at   1.733678  1.347263 -1.441876
      ESP Fit Center   45 is at   1.328145  1.228188 -1.441876
      ESP Fit Center   46 is at   2.465047  0.921838 -1.703038
      ESP Fit Center   47 is at   2.052654  1.039174 -1.703038
      ESP Fit Center   48 is at   1.625723  0.999613 -1.703038
      ESP Fit Center   49 is at   2.346823  0.573422 -1.897099
      ESP Fit Center   50 is at   1.945005  0.681088 -1.897099
      ESP Fit Center   51 is at   2.149850  0.232255 -2.016601
      ESP Fit Center   52 is at   2.223559  0.711988  2.814591
      ESP Fit Center   53 is at   2.631066  0.711988  2.771760
      ESP Fit Center   54 is at   2.427313  1.064899  2.771760
      ESP Fit Center   55 is at   2.019806  1.064899  2.771760
      ESP Fit Center   56 is at   1.816052  0.711988  2.771760
      ESP Fit Center   57 is at   2.019806  0.359077  2.771760
      ESP Fit Center   58 is at   2.427313  0.359077  2.771760
      ESP Fit Center   59 is at   3.020763  0.711988  2.645140
      ESP Fit Center   60 is at   2.913958  1.110590  2.645140
      ESP Fit Center   61 is at   2.622161  1.402387  2.645140
      ESP Fit Center   62 is at   2.223559  1.509192  2.645140
      ESP Fit Center   63 is at   1.824957  1.402387  2.645140
      ESP Fit Center   64 is at   1.533160  1.110590  2.645140
      ESP Fit Center   65 is at   1.426355  0.711988  2.645140
      ESP Fit Center   66 is at   1.533160  0.313386  2.645140
      ESP Fit Center   67 is at   1.824957  0.021589  2.645140
      ESP Fit Center   68 is at   2.223559 -0.085216  2.645140
      ESP Fit Center   69 is at   2.622161  0.021589  2.645140
      ESP Fit Center   70 is at   2.913958  0.313386  2.645140
      ESP Fit Center   71 is at   3.375618  0.711988  2.440264
      ESP Fit Center   72 is at   3.297822  1.128160  2.440264
      ESP Fit Center   73 is at   3.074941  1.488125  2.440264
      ESP Fit Center   74 is at   2.737076  1.743269  2.440264
      ESP Fit Center   75 is at   2.329858  1.859133  2.440264
      ESP Fit Center   76 is at   1.908283  1.820068  2.440264
      ESP Fit Center   77 is at   1.529288  1.631351  2.440264
      ESP Fit Center   78 is at   1.244059  1.318469  2.440264
      ESP Fit Center   79 is at   1.091116  0.923678  2.440264
      ESP Fit Center   80 is at   1.091116  0.500298  2.440264
      ESP Fit Center   81 is at   1.244059  0.105507  2.440264
      ESP Fit Center   82 is at   1.529288 -0.207375  2.440264
      ESP Fit Center   83 is at   1.908283 -0.396092  2.440264
      ESP Fit Center   84 is at   2.329858 -0.435156  2.440264
      ESP Fit Center   85 is at   2.737076 -0.319293  2.440264
      ESP Fit Center   86 is at   3.074941 -0.064149  2.440264
      ESP Fit Center   87 is at   3.297822  0.295816  2.440264
      ESP Fit Center   88 is at   3.680123  0.711988  2.166087
      ESP Fit Center   89 is at   3.621122  1.122350  2.166087
      ESP Fit Center   90 is at   3.448899  1.499466  2.166087
      ESP Fit Center   91 is at   3.177406  1.812786  2.166087
      ESP Fit Center   92 is at   2.828638  2.036925  2.166087
      ESP Fit Center   93 is at   2.430850  2.153726  2.166087
      ESP Fit Center   94 is at   2.016268  2.153726  2.166087
      ESP Fit Center   95 is at   1.618481  2.036925  2.166087
      ESP Fit Center   96 is at   1.269713  1.812786  2.166087
      ESP Fit Center   97 is at   0.998220  1.499466  2.166087
      ESP Fit Center   98 is at   1.269713 -0.388809  2.166087
      ESP Fit Center   99 is at   1.618481 -0.612949  2.166087
      ESP Fit Center  100 is at   2.016268 -0.729750  2.166087
      ESP Fit Center  101 is at   2.430850 -0.729750  2.166087
      ESP Fit Center  102 is at   2.828638 -0.612949  2.166087
      ESP Fit Center  103 is at   3.177406 -0.388809  2.166087
      ESP Fit Center  104 is at   3.448899 -0.075490  2.166087
      ESP Fit Center  105 is at   3.621122  0.301627  2.166087
      ESP Fit Center  106 is at   3.920969  0.711988  1.834591
      ESP Fit Center  107 is at   3.867642  1.134117  1.834591
      ESP Fit Center  108 is at   3.711011  1.529722  1.834591
      ESP Fit Center  109 is at   3.460918  1.873945  1.834591
      ESP Fit Center  110 is at   3.133077  2.145159  1.834591
      ESP Fit Center  111 is at   2.748088  2.326321  1.834591
      ESP Fit Center  112 is at   2.330140  2.406048  1.834591
      ESP Fit Center  113 is at   1.905496  2.379332  1.834591
      ESP Fit Center  114 is at   1.500837  2.247850  1.834591
      ESP Fit Center  115 is at   1.141589  2.019865  1.834591
      ESP Fit Center  116 is at   0.850326  1.709701  1.834591
      ESP Fit Center  117 is at   2.748088 -0.902345  1.834591
      ESP Fit Center  118 is at   3.133077 -0.721182  1.834591
      ESP Fit Center  119 is at   3.460918 -0.449969  1.834591
      ESP Fit Center  120 is at   3.711011 -0.105745  1.834591
      ESP Fit Center  121 is at   3.867642  0.289859  1.834591
      ESP Fit Center  122 is at   4.087630  0.711988  1.460264
      ESP Fit Center  123 is at   4.040894  1.126783  1.460264
      ESP Fit Center  124 is at   3.903029  1.520778  1.460264
      ESP Fit Center  125 is at   3.680948  1.874217  1.460264
      ESP Fit Center  126 is at   3.385788  2.169377  1.460264
      ESP Fit Center  127 is at   3.032349  2.391458  1.460264
      ESP Fit Center  128 is at   2.638354  2.529323  1.460264
      ESP Fit Center  129 is at   2.223559  2.576059  1.460264
      ESP Fit Center  130 is at   1.808764  2.529323  1.460264
      ESP Fit Center  131 is at   1.414769  2.391458  1.460264
      ESP Fit Center  132 is at   3.385788 -0.745401  1.460264
      ESP Fit Center  133 is at   3.680948 -0.450241  1.460264
      ESP Fit Center  134 is at   3.903029 -0.096802  1.460264
      ESP Fit Center  135 is at   4.040894  0.297193  1.460264
      ESP Fit Center  136 is at   4.172822  0.711988  1.059467
      ESP Fit Center  137 is at   4.127249  1.131022  1.059467
      ESP Fit Center  138 is at   3.992662  1.530462  1.059467
      ESP Fit Center  139 is at   3.775354  1.891632  1.059467
      ESP Fit Center  140 is at   3.485485  2.197642  1.059467
      ESP Fit Center  141 is at   3.136610  2.434185  1.059467
      ESP Fit Center  142 is at   2.745042  2.590200  1.059467
      ESP Fit Center  143 is at   2.329090  2.658392  1.059467
      ESP Fit Center  144 is at   1.908203  2.635572  1.059467
      ESP Fit Center  145 is at   3.992662 -0.106486  1.059467
      ESP Fit Center  146 is at   4.127249  0.292954  1.059467
      ESP Fit Center  147 is at   4.172822  0.711988  0.649715
      ESP Fit Center  148 is at   4.127249  1.131022  0.649715
      ESP Fit Center  149 is at   3.992662  1.530462  0.649715
      ESP Fit Center  150 is at   3.775354  1.891632  0.649715
      ESP Fit Center  151 is at   3.485485  2.197642  0.649715
      ESP Fit Center  152 is at   3.136610  2.434185  0.649715
      ESP Fit Center  153 is at   2.745042  2.590200  0.649715
      ESP Fit Center  154 is at   2.329090  2.658392  0.649715
      ESP Fit Center  155 is at   1.908203  2.635572  0.649715
      ESP Fit Center  156 is at   4.127249  0.292954  0.649715
      ESP Fit Center  157 is at   4.087630  0.711988  0.248918
      ESP Fit Center  158 is at   4.040894  1.126783  0.248918
      ESP Fit Center  159 is at   3.903029  1.520778  0.248918
      ESP Fit Center  160 is at   3.680948  1.874217  0.248918
      ESP Fit Center  161 is at   3.385788  2.169377  0.248918
      ESP Fit Center  162 is at   3.032349  2.391458  0.248918
      ESP Fit Center  163 is at   2.638354  2.529323  0.248918
      ESP Fit Center  164 is at   2.223559  2.576059  0.248918
      ESP Fit Center  165 is at   3.867642  1.134117 -0.125409
      ESP Fit Center  166 is at   3.711011  1.529722 -0.125409
      ESP Fit Center  167 is at   3.460918  1.873945 -0.125409
      ESP Fit Center  168 is at   3.133077  2.145159 -0.125409
      ESP Fit Center  169 is at   2.748088  2.326321 -0.125409
      ESP Fit Center  170 is at   2.330140  2.406048 -0.125409
      ESP Fit Center  171 is at   3.621122  1.122350 -0.456905
      ESP Fit Center  172 is at   3.448899  1.499466 -0.456905
      ESP Fit Center  173 is at   3.177406  1.812786 -0.456905
      ESP Fit Center  174 is at   2.828638  2.036925 -0.456905
      ESP Fit Center  175 is at   2.430850  2.153726 -0.456905
      ESP Fit Center  176 is at   2.016268  2.153726 -0.456905
      ESP Fit Center  177 is at   3.074941  1.488125 -0.731082
      ESP Fit Center  178 is at   2.737076  1.743269 -0.731082
      ESP Fit Center  179 is at   2.329858  1.859133 -0.731082
      ESP Fit Center  180 is at   3.714262 -0.808580  1.254129
      ESP Fit Center  181 is at   2.917058 -1.605784  1.254129
      ESP Fit Center  182 is at   3.315660 -1.498979  1.254129
      ESP Fit Center  183 is at   3.607457 -1.207182  1.254129
      ESP Fit Center  184 is at   4.069117 -0.808580  1.049253
      ESP Fit Center  185 is at   3.991321 -0.392408  1.049253
      ESP Fit Center  186 is at   2.601782 -1.916660  1.049253
      ESP Fit Center  187 is at   3.023357 -1.955724  1.049253
      ESP Fit Center  188 is at   3.430575 -1.839861  1.049253
      ESP Fit Center  189 is at   3.768440 -1.584717  1.049253
      ESP Fit Center  190 is at   3.991321 -1.224752  1.049253
      ESP Fit Center  191 is at   4.373622 -0.808580  0.775076
      ESP Fit Center  192 is at   4.314621 -0.398218  0.775076
      ESP Fit Center  193 is at   4.142398 -0.021102  0.775076
      ESP Fit Center  194 is at   2.311980 -2.133517  0.775076
      ESP Fit Center  195 is at   2.709767 -2.250318  0.775076
      ESP Fit Center  196 is at   3.124349 -2.250318  0.775076
      ESP Fit Center  197 is at   3.522137 -2.133517  0.775076
      ESP Fit Center  198 is at   3.870905 -1.909377  0.775076
      ESP Fit Center  199 is at   4.142398 -1.596058  0.775076
      ESP Fit Center  200 is at   4.314621 -1.218941  0.775076
      ESP Fit Center  201 is at   4.614468 -0.808580  0.443580
      ESP Fit Center  202 is at   4.561141 -0.386451  0.443580
      ESP Fit Center  203 is at   4.404510  0.009154  0.443580
      ESP Fit Center  204 is at   4.154417  0.353377  0.443580
      ESP Fit Center  205 is at   2.194336 -2.344442  0.443580
      ESP Fit Center  206 is at   2.598995 -2.475924  0.443580
      ESP Fit Center  207 is at   3.023639 -2.502640  0.443580
      ESP Fit Center  208 is at   3.441587 -2.422913  0.443580
      ESP Fit Center  209 is at   3.826576 -2.241750  0.443580
      ESP Fit Center  210 is at   4.154417 -1.970537  0.443580
      ESP Fit Center  211 is at   4.404510 -1.626313  0.443580
      ESP Fit Center  212 is at   4.561141 -1.230709  0.443580
      ESP Fit Center  213 is at   4.781129 -0.808580  0.069253
      ESP Fit Center  214 is at   4.734393 -0.393785  0.069253
      ESP Fit Center  215 is at   4.596528  0.000210  0.069253
      ESP Fit Center  216 is at   4.374447  0.353649  0.069253
      ESP Fit Center  217 is at   4.079287  0.648809  0.069253
      ESP Fit Center  218 is at   2.502263 -2.625914  0.069253
      ESP Fit Center  219 is at   2.917058 -2.672651  0.069253
      ESP Fit Center  220 is at   3.331853 -2.625914  0.069253
      ESP Fit Center  221 is at   3.725848 -2.488050  0.069253
      ESP Fit Center  222 is at   4.079287 -2.265969  0.069253
      ESP Fit Center  223 is at   4.374447 -1.970809  0.069253
      ESP Fit Center  224 is at   4.596528 -1.617370  0.069253
      ESP Fit Center  225 is at   4.734393 -1.223375  0.069253
      ESP Fit Center  226 is at   4.866321 -0.808580 -0.331544
      ESP Fit Center  227 is at   4.820748 -0.389546 -0.331544
      ESP Fit Center  228 is at   4.686161  0.009894 -0.331544
      ESP Fit Center  229 is at   4.468853  0.371064 -0.331544
      ESP Fit Center  230 is at   4.178984  0.677074 -0.331544
      ESP Fit Center  231 is at   3.830109  0.913617 -0.331544
      ESP Fit Center  232 is at   3.438541 -2.686792 -0.331544
      ESP Fit Center  233 is at   3.830109 -2.530777 -0.331544
      ESP Fit Center  234 is at   4.178984 -2.294234 -0.331544
      ESP Fit Center  235 is at   4.468853 -1.988224 -0.331544
      ESP Fit Center  236 is at   4.686161 -1.627054 -0.331544
      ESP Fit Center  237 is at   4.820748 -1.227614 -0.331544
      ESP Fit Center  238 is at   4.866321 -0.808580 -0.741296
      ESP Fit Center  239 is at   4.820748 -0.389546 -0.741296
      ESP Fit Center  240 is at   4.686161  0.009894 -0.741296
      ESP Fit Center  241 is at   4.468853  0.371064 -0.741296
      ESP Fit Center  242 is at   4.178984  0.677074 -0.741296
      ESP Fit Center  243 is at   3.830109  0.913617 -0.741296
      ESP Fit Center  244 is at   3.830109 -2.530777 -0.741296
      ESP Fit Center  245 is at   4.178984 -2.294234 -0.741296
      ESP Fit Center  246 is at   4.468853 -1.988224 -0.741296
      ESP Fit Center  247 is at   4.686161 -1.627054 -0.741296
      ESP Fit Center  248 is at   4.820748 -1.227614 -0.741296
      ESP Fit Center  249 is at   4.781129 -0.808580 -1.142093
      ESP Fit Center  250 is at   4.734393 -0.393785 -1.142093
      ESP Fit Center  251 is at   4.596528  0.000210 -1.142093
      ESP Fit Center  252 is at   4.374447  0.353649 -1.142093
      ESP Fit Center  253 is at   4.079287  0.648809 -1.142093
      ESP Fit Center  254 is at   3.725848  0.870890 -1.142093
      ESP Fit Center  255 is at   3.331853  1.008755 -1.142093
      ESP Fit Center  256 is at   4.079287 -2.265969 -1.142093
      ESP Fit Center  257 is at   4.374447 -1.970809 -1.142093
      ESP Fit Center  258 is at   4.596528 -1.617370 -1.142093
      ESP Fit Center  259 is at   4.734393 -1.223375 -1.142093
      ESP Fit Center  260 is at   4.614468 -0.808580 -1.516420
      ESP Fit Center  261 is at   4.561141 -0.386451 -1.516420
      ESP Fit Center  262 is at   4.404510  0.009154 -1.516420
      ESP Fit Center  263 is at   4.154417  0.353377 -1.516420
      ESP Fit Center  264 is at   3.826576  0.624591 -1.516420
      ESP Fit Center  265 is at   3.441587  0.805753 -1.516420
      ESP Fit Center  266 is at   3.023639  0.885480 -1.516420
      ESP Fit Center  267 is at   4.154417 -1.970537 -1.516420
      ESP Fit Center  268 is at   4.404510 -1.626313 -1.516420
      ESP Fit Center  269 is at   4.561141 -1.230709 -1.516420
      ESP Fit Center  270 is at   4.373622 -0.808580 -1.847916
      ESP Fit Center  271 is at   4.314621 -0.398218 -1.847916
      ESP Fit Center  272 is at   4.142398 -0.021102 -1.847916
      ESP Fit Center  273 is at   3.870905  0.292218 -1.847916
      ESP Fit Center  274 is at   3.522137  0.516357 -1.847916
      ESP Fit Center  275 is at   3.124349  0.633158 -1.847916
      ESP Fit Center  276 is at   2.709767  0.633158 -1.847916
      ESP Fit Center  277 is at   4.142398 -1.596058 -1.847916
      ESP Fit Center  278 is at   4.314621 -1.218941 -1.847916
      ESP Fit Center  279 is at   4.069117 -0.808580 -2.122093
      ESP Fit Center  280 is at   3.991321 -0.392408 -2.122093
      ESP Fit Center  281 is at   3.768440 -0.032443 -2.122093
      ESP Fit Center  282 is at   3.430575  0.222701 -2.122093
      ESP Fit Center  283 is at   3.023357  0.338565 -2.122093
      ESP Fit Center  284 is at   2.601782  0.299500 -2.122093
      ESP Fit Center  285 is at   2.222787  0.110783 -2.122093
      ESP Fit Center  286 is at   3.991321 -1.224752 -2.122093
      ESP Fit Center  287 is at   3.714262 -0.808580 -2.326969
      ESP Fit Center  288 is at   3.607457 -0.409978 -2.326969
      ESP Fit Center  289 is at   3.315660 -0.118181 -2.326969
      ESP Fit Center  290 is at   2.917058 -0.011376 -2.326969
      ESP Fit Center  291 is at   2.518456 -0.118181 -2.326969
      ESP Fit Center  292 is at   3.120812 -0.455669 -2.453589
      ESP Fit Center  293 is at   1.875189 -2.403758  0.030834
      ESP Fit Center  294 is at   2.265987 -2.598352  0.030834
      ESP Fit Center  295 is at   1.863621 -2.715762 -0.317105
      ESP Fit Center  296 is at   2.267331 -2.874207 -0.317105
      ESP Fit Center  297 is at   2.699809 -2.906616 -0.317105
      ESP Fit Center  298 is at   3.122625 -2.810111 -0.317105
      ESP Fit Center  299 is at   1.779704 -2.861109 -0.722289
      ESP Fit Center  300 is at   2.171082 -3.023223 -0.722289
      ESP Fit Center  301 is at   2.591082 -3.078517 -0.722289
      ESP Fit Center  302 is at   3.011082 -3.023223 -0.722289
      ESP Fit Center  303 is at   3.402460 -2.861109 -0.722289
      ESP Fit Center  304 is at   3.738543 -2.603223 -0.722289
      ESP Fit Center  305 is at   1.520210 -2.750224 -1.157105
      ESP Fit Center  306 is at   1.875773 -2.975871 -1.157105
      ESP Fit Center  307 is at   2.276282 -3.106004 -1.157105
      ESP Fit Center  308 is at   2.696570 -3.132447 -1.157105
      ESP Fit Center  309 is at   3.110231 -3.053537 -1.157105
      ESP Fit Center  310 is at   3.491271 -2.874233 -1.157105
      ESP Fit Center  311 is at   3.815749 -2.605801 -1.157105
      ESP Fit Center  312 is at   1.185735 -2.267140 -1.591921
      ESP Fit Center  313 is at   1.443621 -2.603223 -1.591921
      ESP Fit Center  314 is at   1.779704 -2.861109 -1.591921
      ESP Fit Center  315 is at   2.171082 -3.023223 -1.591921
      ESP Fit Center  316 is at   2.591082 -3.078517 -1.591921
      ESP Fit Center  317 is at   3.011082 -3.023223 -1.591921
      ESP Fit Center  318 is at   3.402460 -2.861109 -1.591921
      ESP Fit Center  319 is at   3.738543 -2.603223 -1.591921
      ESP Fit Center  320 is at   3.996430 -2.267140 -1.591921
      ESP Fit Center  321 is at   1.280242 -2.087029 -1.997105
      ESP Fit Center  322 is at   1.524548 -2.445361 -1.997105
      ESP Fit Center  323 is at   1.863621 -2.715762 -1.997105
      ESP Fit Center  324 is at   2.267331 -2.874207 -1.997105
      ESP Fit Center  325 is at   2.699809 -2.906616 -1.997105
      ESP Fit Center  326 is at   3.122625 -2.810111 -1.997105
      ESP Fit Center  327 is at   3.498212 -2.593266 -1.997105
      ESP Fit Center  328 is at   3.793196 -2.275349 -1.997105
      ESP Fit Center  329 is at   3.981367 -1.884608 -1.997105
      ESP Fit Center  330 is at   3.779022 -1.455762 -2.345044
      ESP Fit Center  331 is at   3.698803 -1.026629 -2.345044
      ESP Fit Center  332 is at   2.265987 -0.313171 -2.345044
      ESP Fit Center  333 is at   1.423370 -1.674045 -2.345044
      ESP Fit Center  334 is at   1.581076 -2.081131 -2.345044
      ESP Fit Center  335 is at   1.875189 -2.403758 -2.345044
      ESP Fit Center  336 is at   2.265987 -2.598352 -2.345044
      ESP Fit Center  337 is at   2.700691 -2.638634 -2.345044
      ESP Fit Center  338 is at   3.120592 -2.519162 -2.345044
      ESP Fit Center  339 is at   3.468980 -2.256071 -2.345044
      ESP Fit Center  340 is at   3.698803 -1.884895 -2.345044
      ESP Fit Center  341 is at   3.431082 -1.455762 -2.612028
      ESP Fit Center  342 is at   3.318543 -1.035762 -2.612028
      ESP Fit Center  343 is at   3.011082 -0.728301 -2.612028
      ESP Fit Center  344 is at   2.591082 -0.615762 -2.612028
      ESP Fit Center  345 is at   2.171082 -0.728301 -2.612028
      ESP Fit Center  346 is at   1.863621 -1.035762 -2.612028
      ESP Fit Center  347 is at   1.751082 -1.455762 -2.612028
      ESP Fit Center  348 is at   1.863621 -1.875762 -2.612028
      ESP Fit Center  349 is at   2.171082 -2.183223 -2.612028
      ESP Fit Center  350 is at   2.591082 -2.295762 -2.612028
      ESP Fit Center  351 is at   3.011082 -2.183223 -2.612028
      ESP Fit Center  352 is at   3.318543 -1.875762 -2.612028
      ESP Fit Center  353 is at   3.025898 -1.455762 -2.779860
      ESP Fit Center  354 is at   2.808490 -1.079200 -2.779860
      ESP Fit Center  355 is at   2.373674 -1.079200 -2.779860
      ESP Fit Center  356 is at   2.156266 -1.455762 -2.779860
      ESP Fit Center  357 is at   2.373674 -1.832324 -2.779860
      ESP Fit Center  358 is at   2.808490 -1.832324 -2.779860
      ESP Fit Center  359 is at   2.591082 -1.455762 -2.837105
      ESP Fit Center  360 is at   0.544005 -1.286980  1.562270
      ESP Fit Center  361 is at   0.945823 -1.179313  1.562270
      ESP Fit Center  362 is at   1.163176  1.149274 -1.544574
      ESP Fit Center  363 is at  -0.762959 -1.641214 -1.544574
      ESP Fit Center  364 is at  -0.447885 -1.920346 -1.544574
      ESP Fit Center  365 is at   0.406177 -1.530946  1.551449
      ESP Fit Center  366 is at   0.840993 -1.530946  1.494204
      ESP Fit Center  367 is at   0.188769 -1.907508  1.494204
      ESP Fit Center  368 is at   0.623585 -1.907508  1.494204
      ESP Fit Center  369 is at   0.406177 -2.370946  1.326372
      ESP Fit Center  370 is at   0.826177 -2.258407  1.326372
      ESP Fit Center  371 is at   1.133638 -1.950946  1.326372
      ESP Fit Center  372 is at   0.081082 -2.673537  1.059388
      ESP Fit Center  373 is at   0.515786 -2.713818  1.059388
      ESP Fit Center  374 is at   0.935687 -2.594346  1.059388
      ESP Fit Center  375 is at   1.284075 -2.331256  1.059388
      ESP Fit Center  376 is at   1.513898 -1.960079  1.059388
      ESP Fit Center  377 is at  -0.321284 -2.790946  0.711449
      ESP Fit Center  378 is at   0.082426 -2.949391  0.711449
      ESP Fit Center  379 is at   0.514904 -2.981800  0.711449
      ESP Fit Center  380 is at   0.937720 -2.885295  0.711449
      ESP Fit Center  381 is at   1.313307 -2.668450  0.711449
      ESP Fit Center  382 is at   1.608291 -2.350533  0.711449
      ESP Fit Center  383 is at  -0.741284 -2.678407  0.306265
      ESP Fit Center  384 is at  -0.405201 -2.936293  0.306265
      ESP Fit Center  385 is at  -0.013823 -3.098407  0.306265
      ESP Fit Center  386 is at   0.406177 -3.153701  0.306265
      ESP Fit Center  387 is at   0.826177 -3.098407  0.306265
      ESP Fit Center  388 is at   1.217555 -2.936293  0.306265
      ESP Fit Center  389 is at   1.553638 -2.678407  0.306265
      ESP Fit Center  390 is at   1.811525 -2.342324  0.306265
      ESP Fit Center  391 is at  -0.664695 -2.825408 -0.128551
      ESP Fit Center  392 is at  -0.309132 -3.051055 -0.128551
      ESP Fit Center  393 is at   0.091377 -3.181189 -0.128551
      ESP Fit Center  394 is at   0.511665 -3.207631 -0.128551
      ESP Fit Center  395 is at   0.925326 -3.128721 -0.128551
      ESP Fit Center  396 is at   1.306366 -2.949417 -0.128551
      ESP Fit Center  397 is at   1.630844 -2.680985 -0.128551
      ESP Fit Center  398 is at  -0.999170 -2.342324 -0.563367
      ESP Fit Center  399 is at  -0.741284 -2.678407 -0.563367
      ESP Fit Center  400 is at  -0.405201 -2.936293 -0.563367
      ESP Fit Center  401 is at  -0.013823 -3.098407 -0.563367
      ESP Fit Center  402 is at   0.406177 -3.153701 -0.563367
      ESP Fit Center  403 is at   0.826177 -3.098407 -0.563367
      ESP Fit Center  404 is at   1.217555 -2.936293 -0.563367
      ESP Fit Center  405 is at   1.553638 -2.678407 -0.563367
      ESP Fit Center  406 is at  -0.904663 -2.162213 -0.968551
      ESP Fit Center  407 is at  -0.660357 -2.520545 -0.968551
      ESP Fit Center  408 is at  -0.321284 -2.790946 -0.968551
      ESP Fit Center  409 is at   0.082426 -2.949391 -0.968551
      ESP Fit Center  410 is at   0.514904 -2.981800 -0.968551
      ESP Fit Center  411 is at   0.937720 -2.885295 -0.968551
      ESP Fit Center  412 is at   1.313307 -2.668450 -0.968551
      ESP Fit Center  413 is at  -0.603829 -2.156315 -1.316490
      ESP Fit Center  414 is at  -0.309716 -2.478942 -1.316490
      ESP Fit Center  415 is at   0.081082 -2.673537 -1.316490
      ESP Fit Center  416 is at   0.515786 -2.713818 -1.316490
      ESP Fit Center  417 is at   0.935687 -2.594346 -1.316490
      ESP Fit Center  418 is at  -0.013823 -2.258407 -1.583474
      ESP Fit Center  419 is at   0.406177 -2.370946 -1.583474
      ESP Fit Center  420 is at   0.826177 -2.258407 -1.583474
      ESP Fit Center  421 is at   1.626175  0.749235 -1.892087
      ESP Fit Center  422 is at   1.290092  1.007121 -1.892087
      ESP Fit Center  423 is at   0.898714  1.169235 -1.892087
      ESP Fit Center  424 is at  -0.926633  0.413152 -1.892087
      ESP Fit Center  425 is at  -1.088747 -0.818226 -1.892087
      ESP Fit Center  426 is at  -0.926633 -1.209604 -1.892087
      ESP Fit Center  427 is at  -0.668747 -1.545687 -1.892087
      ESP Fit Center  428 is at  -0.332664 -1.803573 -1.892087
      ESP Fit Center  429 is at   0.058714 -1.965687 -1.892087
      ESP Fit Center  430 is at   0.478714 -2.020981 -1.892087
      ESP Fit Center  431 is at   0.898714 -1.965687 -1.892087
      ESP Fit Center  432 is at   1.933637 -0.398226 -2.297271
      ESP Fit Center  433 is at   1.868999  0.030620 -2.297271
      ESP Fit Center  434 is at   1.680828  0.421361 -2.297271
      ESP Fit Center  435 is at   1.385844  0.739278 -2.297271
      ESP Fit Center  436 is at   1.010257  0.956123 -2.297271
      ESP Fit Center  437 is at   0.587441  1.052628 -2.297271
      ESP Fit Center  438 is at   0.154963  1.020219 -2.297271
      ESP Fit Center  439 is at  -0.248747  0.861774 -2.297271
      ESP Fit Center  440 is at  -0.587820  0.591373 -2.297271
      ESP Fit Center  441 is at  -0.832126  0.233041 -2.297271
      ESP Fit Center  442 is at  -0.959958 -0.181381 -2.297271
      ESP Fit Center  443 is at  -0.959958 -0.615071 -2.297271
      ESP Fit Center  444 is at  -0.832126 -1.029493 -2.297271
      ESP Fit Center  445 is at  -0.587820 -1.387825 -2.297271
      ESP Fit Center  446 is at  -0.248747 -1.658226 -2.297271
      ESP Fit Center  447 is at   0.154963 -1.816671 -2.297271
      ESP Fit Center  448 is at   0.587441 -1.849080 -2.297271
      ESP Fit Center  449 is at   1.010257 -1.752575 -2.297271
      ESP Fit Center  450 is at   1.666654 -0.398226 -2.645210
      ESP Fit Center  451 is at   1.586435  0.030907 -2.645210
      ESP Fit Center  452 is at   1.356612  0.402084 -2.645210
      ESP Fit Center  453 is at   1.008224  0.665174 -2.645210
      ESP Fit Center  454 is at   0.588323  0.784646 -2.645210
      ESP Fit Center  455 is at   0.153619  0.744365 -2.645210
      ESP Fit Center  456 is at  -0.237179  0.549770 -2.645210
      ESP Fit Center  457 is at  -0.531292  0.227144 -2.645210
      ESP Fit Center  458 is at  -0.688998 -0.179943 -2.645210
      ESP Fit Center  459 is at  -0.688998 -0.616509 -2.645210
      ESP Fit Center  460 is at  -0.531292 -1.023595 -2.645210
      ESP Fit Center  461 is at  -0.237179 -1.346222 -2.645210
      ESP Fit Center  462 is at   0.153619 -1.540817 -2.645210
      ESP Fit Center  463 is at   0.588323 -1.581098 -2.645210
      ESP Fit Center  464 is at   1.008224 -1.461626 -2.645210
      ESP Fit Center  465 is at   1.356612 -1.198536 -2.645210
      ESP Fit Center  466 is at   1.586435 -0.827359 -2.645210
      ESP Fit Center  467 is at   1.318714 -0.398226 -2.912194
      ESP Fit Center  468 is at   1.206175  0.021774 -2.912194
      ESP Fit Center  469 is at   0.898714  0.329235 -2.912194
      ESP Fit Center  470 is at   0.478714  0.441774 -2.912194
      ESP Fit Center  471 is at   0.058714  0.329235 -2.912194
      ESP Fit Center  472 is at  -0.248747  0.021774 -2.912194
      ESP Fit Center  473 is at  -0.361286 -0.398226 -2.912194
      ESP Fit Center  474 is at  -0.248747 -0.818226 -2.912194
      ESP Fit Center  475 is at   0.058714 -1.125687 -2.912194
      ESP Fit Center  476 is at   0.478714 -1.238226 -2.912194
      ESP Fit Center  477 is at   0.898714 -1.125687 -2.912194
      ESP Fit Center  478 is at   1.206175 -0.818226 -2.912194
      ESP Fit Center  479 is at   0.913530 -0.398226 -3.080026
      ESP Fit Center  480 is at   0.696122 -0.021664 -3.080026
      ESP Fit Center  481 is at   0.261306 -0.021664 -3.080026
      ESP Fit Center  482 is at   0.043898 -0.398226 -3.080026
      ESP Fit Center  483 is at   0.261306 -0.774788 -3.080026
      ESP Fit Center  484 is at   0.696122 -0.774788 -3.080026
      ESP Fit Center  485 is at   0.478714 -0.398226 -3.137271
      ESP Fit Center  486 is at  -0.270321  2.095561  1.818792
      ESP Fit Center  487 is at  -0.680011  2.095561  1.818792
      ESP Fit Center  488 is at  -0.073348  2.436728  1.699290
      ESP Fit Center  489 is at  -0.475166  2.544394  1.699290
      ESP Fit Center  490 is at  -0.367517  2.902480  1.505229
      ESP Fit Center  491 is at  -0.263839  3.210569  1.244067
      ESP Fit Center  492 is at  -0.264699  3.474114  0.925841
      ESP Fit Center  493 is at  -0.163278  3.776657  0.168833
      ESP Fit Center  494 is at  -0.065476  3.800408 -0.240857
      ESP Fit Center  495 is at  -0.475166  3.840759 -0.240857
      ESP Fit Center  496 is at  -0.163278  3.776657 -0.650547
      ESP Fit Center  497 is at  -0.579485  3.797765 -0.650547
      ESP Fit Center  498 is at  -0.991422  3.734658 -0.650547
      ESP Fit Center  499 is at   0.433615  3.454902 -1.044492
      ESP Fit Center  500 is at   0.043878  3.610188 -1.044492
      ESP Fit Center  501 is at  -0.370129  3.678061 -1.044492
      ESP Fit Center  502 is at  -0.789047  3.655348 -1.044492
      ESP Fit Center  503 is at  -1.193288  3.543110 -1.044492
      ESP Fit Center  504 is at   1.270920  1.740759 -1.407554
      ESP Fit Center  505 is at   1.220182  2.158625 -1.407554
      ESP Fit Center  506 is at   0.831798  2.898628 -1.407554
      ESP Fit Center  507 is at   0.516724  3.177760 -1.407554
      ESP Fit Center  508 is at   0.144005  3.373378 -1.407554
      ESP Fit Center  509 is at  -0.264699  3.474114 -1.407554
      ESP Fit Center  510 is at  -0.685633  3.474114 -1.407554
      ESP Fit Center  511 is at  -1.094337  3.373378 -1.407554
      ESP Fit Center  512 is at  -1.467056  3.177760 -1.407554
      ESP Fit Center  513 is at  -1.782130  2.898628 -1.407554
      ESP Fit Center  514 is at  -2.021248  2.552206 -1.407554
      ESP Fit Center  515 is at  -2.170514  2.158625 -1.407554
      ESP Fit Center  516 is at   1.220182  1.322893 -1.407554
      ESP Fit Center  517 is at   1.009758  1.740759 -1.725781
      ESP Fit Center  518 is at   0.949608  2.159111 -1.725781
      ESP Fit Center  519 is at   0.774032  2.543570 -1.725781
      ESP Fit Center  520 is at   0.497253  2.862990 -1.725781
      ESP Fit Center  521 is at   0.141694  3.091494 -1.725781
      ESP Fit Center  522 is at  -0.263839  3.210569 -1.725781
      ESP Fit Center  523 is at  -0.686493  3.210569 -1.725781
      ESP Fit Center  524 is at  -1.092026  3.091494 -1.725781
      ESP Fit Center  525 is at  -1.447585  2.862990 -1.725781
      ESP Fit Center  526 is at  -1.724364  2.543570 -1.725781
      ESP Fit Center  527 is at  -1.899940  2.159111 -1.725781
      ESP Fit Center  528 is at   0.949608  1.322408 -1.725781
      ESP Fit Center  529 is at   0.691532  1.740759 -1.986943
      ESP Fit Center  530 is at   0.612747  2.162219 -1.986943
      ESP Fit Center  531 is at   0.387034  2.526758 -1.986943
      ESP Fit Center  532 is at   0.044876  2.785144 -1.986943
      ESP Fit Center  533 is at  -0.367517  2.902480 -1.986943
      ESP Fit Center  534 is at  -0.794448  2.862919 -1.986943
      ESP Fit Center  535 is at  -1.178258  2.671804 -1.986943
      ESP Fit Center  536 is at  -1.467112  2.354946 -1.986943
      ESP Fit Center  537 is at  -1.621998  1.955139 -1.986943
      ESP Fit Center  538 is at  -1.621998  1.526379 -1.986943
      ESP Fit Center  539 is at  -1.178258  0.809714 -1.986943
      ESP Fit Center  540 is at  -0.794448  0.618599 -1.986943
      ESP Fit Center  541 is at   0.612747  1.319299 -1.986943
      ESP Fit Center  542 is at   0.328469  1.740759 -2.181004
      ESP Fit Center  543 is at   0.220803  2.142577 -2.181004
      ESP Fit Center  544 is at  -0.073348  2.436728 -2.181004
      ESP Fit Center  545 is at  -0.475166  2.544394 -2.181004
      ESP Fit Center  546 is at  -0.876984  2.436728 -2.181004
      ESP Fit Center  547 is at  -1.171134  2.142577 -2.181004
      ESP Fit Center  548 is at  -1.278801  1.740759 -2.181004
      ESP Fit Center  549 is at  -1.171134  1.338941 -2.181004
      ESP Fit Center  550 is at  -0.876984  1.044791 -2.181004
      ESP Fit Center  551 is at  -0.475166  0.937124 -2.181004
      ESP Fit Center  552 is at  -0.073348  1.044791 -2.181004
      ESP Fit Center  553 is at   0.220803  1.338941 -2.181004
      ESP Fit Center  554 is at  -0.065476  1.740759 -2.300506
      ESP Fit Center  555 is at  -0.270321  2.095561 -2.300506
      ESP Fit Center  556 is at  -0.680011  2.095561 -2.300506
      ESP Fit Center  557 is at  -0.884856  1.740759 -2.300506
      ESP Fit Center  558 is at  -0.680011  1.385957 -2.300506
      ESP Fit Center  559 is at  -0.270321  1.385957 -2.300506
      ESP Fit Center  560 is at  -0.475166  1.740759 -2.340857
      ESP Fit Center  561 is at   0.385013  2.161785  1.734592
      ESP Fit Center  562 is at   0.819829  2.161785  1.677347
      ESP Fit Center  563 is at   0.602421  2.538347  1.677347
      ESP Fit Center  564 is at   0.167605  2.538347  1.677347
      ESP Fit Center  565 is at   0.602421  1.785223  1.677347
      ESP Fit Center  566 is at   1.112474  2.581785  1.509515
      ESP Fit Center  567 is at   0.805013  2.889246  1.509515
      ESP Fit Center  568 is at   0.385013  3.001785  1.509515
      ESP Fit Center  569 is at  -0.034987  2.889246  1.509515
      ESP Fit Center  570 is at   1.492734  2.590918  1.242531
      ESP Fit Center  571 is at   1.262911  2.962095  1.242531
      ESP Fit Center  572 is at   0.914523  3.225185  1.242531
      ESP Fit Center  573 is at   0.494622  3.344657  1.242531
      ESP Fit Center  574 is at   0.059918  3.304376  1.242531
      ESP Fit Center  575 is at   1.587127  2.981372  0.894592
      ESP Fit Center  576 is at   1.292142  3.299289  0.894592
      ESP Fit Center  577 is at   0.916556  3.516134  0.894592
      ESP Fit Center  578 is at   0.493740  3.612639  0.894592
      ESP Fit Center  579 is at   0.061262  3.580230  0.894592
      ESP Fit Center  580 is at   1.790360  2.973163  0.489408
      ESP Fit Center  581 is at   1.532474  3.309246  0.489408
      ESP Fit Center  582 is at   1.196391  3.567132  0.489408
      ESP Fit Center  583 is at   0.805013  3.729246  0.489408
      ESP Fit Center  584 is at   0.385013  3.784540  0.489408
      ESP Fit Center  585 is at  -0.034987  3.729246  0.489408
      ESP Fit Center  586 is at   2.012233  2.579584  0.054592
      ESP Fit Center  587 is at   1.857208  2.971131  0.054592
      ESP Fit Center  588 is at   1.609680  3.311824  0.054592
      ESP Fit Center  589 is at   1.285202  3.580256  0.054592
      ESP Fit Center  590 is at   0.904162  3.759560  0.054592
      ESP Fit Center  591 is at   0.490501  3.838470  0.054592
      ESP Fit Center  592 is at   0.070212  3.812028  0.054592
      ESP Fit Center  593 is at   1.952474  2.581785 -0.380224
      ESP Fit Center  594 is at   1.790360  2.973163 -0.380224
      ESP Fit Center  595 is at   1.532474  3.309246 -0.380224
      ESP Fit Center  596 is at   1.196391  3.567132 -0.380224
      ESP Fit Center  597 is at   0.805013  3.729246 -0.380224
      ESP Fit Center  598 is at   0.385013  3.784540 -0.380224
      ESP Fit Center  599 is at   1.839936  2.161785 -0.785408
      ESP Fit Center  600 is at   1.775298  2.590631 -0.785408
      ESP Fit Center  601 is at   1.587127  2.981372 -0.785408
      ESP Fit Center  602 is at   1.292142  3.299289 -0.785408
      ESP Fit Center  603 is at   0.916556  3.516134 -0.785408
      ESP Fit Center  604 is at   0.493740  3.612639 -0.785408
      ESP Fit Center  605 is at   1.572952  2.161785 -1.133347
      ESP Fit Center  606 is at   1.492734  2.590918 -1.133347
      ESP Fit Center  607 is at   1.262911  2.962095 -1.133347
      ESP Fit Center  608 is at   0.914523  3.225185 -1.133347
      ESP Fit Center  609 is at   1.492734  1.732652 -1.133347
      ESP Fit Center  610 is at   1.225013  2.161785 -1.400331
      ESP Fit Center  611 is at   1.112474  2.581785 -1.400331
      ESP Fit Center  612 is at  -1.210682  2.284098  1.852020
      ESP Fit Center  613 is at  -0.775866  2.284098  1.794775
      ESP Fit Center  614 is at  -0.993274  2.660660  1.794775
      ESP Fit Center  615 is at  -1.428090  2.660660  1.794775
      ESP Fit Center  616 is at  -1.645498  2.284098  1.794775
      ESP Fit Center  617 is at  -1.428090  1.907536  1.794775
      ESP Fit Center  618 is at  -0.993274  1.907536  1.794775
      ESP Fit Center  619 is at  -0.483221  2.704098  1.626943
      ESP Fit Center  620 is at  -0.790682  3.011559  1.626943
      ESP Fit Center  621 is at  -1.210682  3.124098  1.626943
      ESP Fit Center  622 is at  -1.630682  3.011559  1.626943
      ESP Fit Center  623 is at  -1.938143  2.704098  1.626943
      ESP Fit Center  624 is at  -2.050682  2.284098  1.626943
      ESP Fit Center  625 is at  -1.938143  1.864098  1.626943
      ESP Fit Center  626 is at  -0.681172  3.347498  1.359959
      ESP Fit Center  627 is at  -1.101073  3.466970  1.359959
      ESP Fit Center  628 is at  -1.535777  3.426689  1.359959
      ESP Fit Center  629 is at  -1.926575  3.232094  1.359959
      ESP Fit Center  630 is at  -2.220688  2.909468  1.359959
      ESP Fit Center  631 is at  -2.378394  2.502381  1.359959
      ESP Fit Center  632 is at  -2.378394  2.065815  1.359959
      ESP Fit Center  633 is at  -2.220688  1.658728  1.359959
      ESP Fit Center  634 is at  -0.303553  3.421602  1.012020
      ESP Fit Center  635 is at  -0.679139  3.638447  1.012020
      ESP Fit Center  636 is at  -1.101955  3.734952  1.012020
      ESP Fit Center  637 is at  -1.534433  3.702543  1.012020
      ESP Fit Center  638 is at  -1.938143  3.544098  1.012020
      ESP Fit Center  639 is at  -2.277216  3.273697  1.012020
      ESP Fit Center  640 is at  -2.521522  2.915365  1.012020
      ESP Fit Center  641 is at  -2.649354  2.500943  1.012020
      ESP Fit Center  642 is at  -2.649354  2.067253  1.012020
      ESP Fit Center  643 is at  -2.521522  1.652831  1.012020
      ESP Fit Center  644 is at  -0.399304  3.689445  0.606836
      ESP Fit Center  645 is at  -0.790682  3.851559  0.606836
      ESP Fit Center  646 is at  -1.210682  3.906853  0.606836
      ESP Fit Center  647 is at  -1.630682  3.851559  0.606836
      ESP Fit Center  648 is at  -2.022060  3.689445  0.606836
      ESP Fit Center  649 is at  -2.358143  3.431559  0.606836
      ESP Fit Center  650 is at  -2.616029  3.095476  0.606836
      ESP Fit Center  651 is at  -2.778143  2.704098  0.606836
      ESP Fit Center  652 is at  -2.833437  2.284098  0.606836
      ESP Fit Center  653 is at  -2.778143  1.864098  0.606836
      ESP Fit Center  654 is at  -0.691533  3.881873  0.172020
      ESP Fit Center  655 is at  -1.105194  3.960783  0.172020
      ESP Fit Center  656 is at  -1.525483  3.934341  0.172020
      ESP Fit Center  657 is at  -1.925991  3.804207  0.172020
      ESP Fit Center  658 is at  -2.281554  3.578560  0.172020
      ESP Fit Center  659 is at  -2.569831  3.271577  0.172020
      ESP Fit Center  660 is at  -2.772706  2.902547  0.172020
      ESP Fit Center  661 is at  -2.877435  2.494658  0.172020
      ESP Fit Center  662 is at  -2.877435  2.073538  0.172020
      ESP Fit Center  663 is at  -0.790682  3.851559 -0.262796
      ESP Fit Center  664 is at  -1.210682  3.906853 -0.262796
      ESP Fit Center  665 is at  -1.630682  3.851559 -0.262796
      ESP Fit Center  666 is at  -2.022060  3.689445 -0.262796
      ESP Fit Center  667 is at  -2.358143  3.431559 -0.262796
      ESP Fit Center  668 is at  -2.616029  3.095476 -0.262796
      ESP Fit Center  669 is at  -2.778143  2.704098 -0.262796
      ESP Fit Center  670 is at  -2.833437  2.284098 -0.262796
      ESP Fit Center  671 is at  -1.101955  3.734952 -0.667980
      ESP Fit Center  672 is at  -1.534433  3.702543 -0.667980
      ESP Fit Center  673 is at  -1.938143  3.544098 -0.667980
      ESP Fit Center  674 is at  -2.277216  3.273697 -0.667980
      ESP Fit Center  675 is at  -2.521522  2.915365 -0.667980
      ESP Fit Center  676 is at  -2.649354  2.500943 -0.667980
      ESP Fit Center  677 is at  -1.535777  3.426689 -1.015919
      ESP Fit Center  678 is at  -1.926575  3.232094 -1.015919
      ESP Fit Center  679 is at  -2.220688  2.909468 -1.015919
      ESP Fit Center  680 is at  -2.378394  2.502381 -1.015919
      ESP Fit Center  681 is at  -2.093955  0.139892  2.064616
      ESP Fit Center  682 is at  -2.290927  0.481058  1.945114
      ESP Fit Center  683 is at  -2.585078  0.186908  1.945114
      ESP Fit Center  684 is at  -2.208392  0.907250  1.751053
      ESP Fit Center  685 is at  -2.592202  0.716135  1.751053
      ESP Fit Center  686 is at  -2.881056  0.399277  1.751053
      ESP Fit Center  687 is at  -2.100437  1.254900  1.489891
      ESP Fit Center  688 is at  -2.505970  1.135825  1.489891
      ESP Fit Center  689 is at  -2.861528  0.907321  1.489891
      ESP Fit Center  690 is at  -3.138308  0.587901  1.489891
      ESP Fit Center  691 is at  -3.313884  0.203441  1.489891
      ESP Fit Center  692 is at  -2.508281  1.417709  1.171665
      ESP Fit Center  693 is at  -2.881000  1.222091  1.171665
      ESP Fit Center  694 is at  -3.196074  0.942959  1.171665
      ESP Fit Center  695 is at  -3.435192  0.596537  1.171665
      ESP Fit Center  696 is at  -3.584458  0.202956  1.171665
      ESP Fit Center  697 is at  -2.607232  1.587441  0.808602
      ESP Fit Center  698 is at  -2.977895  1.390928  0.808602
      ESP Fit Center  699 is at  -1.678642 -1.948265 -1.161730
      ESP Fit Center  700 is at  -1.269939 -1.847529 -1.161730
      ESP Fit Center  701 is at  -2.100437 -1.684720 -1.479957
      ESP Fit Center  702 is at  -1.677783 -1.684720 -1.479957
      ESP Fit Center  703 is at  -1.272250 -1.565645 -1.479957
      ESP Fit Center  704 is at  -1.781461 -1.376631 -1.741119
      ESP Fit Center  705 is at  -1.369068 -1.259295 -1.741119
      ESP Fit Center  706 is at  -1.487292 -0.910879 -1.935180
      ESP Fit Center  707 is at  -1.193141 -0.616728 -1.935180
      ESP Fit Center  708 is at  -0.383597  0.347296  3.041518
      ESP Fit Center  709 is at   0.051219  0.347296  2.984273
      ESP Fit Center  710 is at  -0.166189  0.723858  2.984273
      ESP Fit Center  711 is at  -0.601005  0.723858  2.984273
      ESP Fit Center  712 is at  -0.818413  0.347296  2.984273
      ESP Fit Center  713 is at  -0.601005 -0.029266  2.984273
      ESP Fit Center  714 is at  -0.166189 -0.029266  2.984273
      ESP Fit Center  715 is at   0.456403  0.347296  2.816441
      ESP Fit Center  716 is at   0.343864  0.767296  2.816441
      ESP Fit Center  717 is at   0.036403  1.074757  2.816441
      ESP Fit Center  718 is at  -0.383597  1.187296  2.816441
      ESP Fit Center  719 is at  -0.803597  1.074757  2.816441
      ESP Fit Center  720 is at  -1.111058  0.767296  2.816441
      ESP Fit Center  721 is at  -1.223597  0.347296  2.816441
      ESP Fit Center  722 is at  -1.111058 -0.072704  2.816441
      ESP Fit Center  723 is at  -0.803597 -0.380165  2.816441
      ESP Fit Center  724 is at  -0.383597 -0.492704  2.816441
      ESP Fit Center  725 is at   0.036403 -0.380165  2.816441
      ESP Fit Center  726 is at   0.343864 -0.072704  2.816441
      ESP Fit Center  727 is at   0.804342  0.347296  2.549457
      ESP Fit Center  728 is at   0.724124  0.776429  2.549457
      ESP Fit Center  729 is at   0.494301  1.147606  2.549457
      ESP Fit Center  730 is at   0.145913  1.410696  2.549457
      ESP Fit Center  731 is at  -0.273988  1.530168  2.549457
      ESP Fit Center  732 is at  -0.708692  1.489887  2.549457
      ESP Fit Center  733 is at  -1.099490  1.295292  2.549457
      ESP Fit Center  734 is at  -1.393603  0.972666  2.549457
      ESP Fit Center  735 is at  -1.551309  0.565579  2.549457
      ESP Fit Center  736 is at  -1.551309  0.129013  2.549457
      ESP Fit Center  737 is at  -1.393603 -0.278073  2.549457
[...]
 4488 Fit      -0.000284
 4489 Fit      -0.001523
 4490 Fit       0.004195
 4491 Fit      -0.007504
 4492 Fit      -0.001017
 4493 Fit       0.003817
 4494 Fit      -0.004724
 4495 Fit       0.000401
 4496 Fit       0.004295
 4497 Fit       0.007638
 4498 Fit      -0.007861
 4499 Fit      -0.002527
 4500 Fit       0.001341
 4501 Fit       0.004354
 4502 Fit       0.007023
 4503 Fit      -0.008730
 4504 Fit      -0.003631
 4505 Fit      -0.000021
 4506 Fit       0.002663
 4507 Fit       0.004870
 4508 Fit      -0.009042
 4509 Fit      -0.004484
 4510 Fit      -0.001291
 4511 Fit       0.000994
 4512 Fit       0.002726
 4513 Fit      -0.008353
 4514 Fit      -0.004676
 4515 Fit      -0.002129
 4516 Fit      -0.000388
 4517 Fit       0.000809
 4518 Fit      -0.010542
 4519 Fit      -0.006894
 4520 Fit      -0.004353
 4521 Fit      -0.002692
 4522 Fit      -0.001713
 4523 Fit      -0.001237
 4524 Fit      -0.010763
 4525 Fit      -0.008023
 4526 Fit      -0.005950
 4527 Fit      -0.004610
 4528 Fit      -0.003960
 4529 Fit      -0.003918
 4530 Fit      -0.007726
 4531 Fit      -0.006867
 4532 Fit      -0.006218
 4533 Fit      -0.006052
 4534 Fit      -0.005503
 4535 Fit      -0.006763
 4536 Fit      -0.007373
 4537 Fit       0.020616
 4538 Fit       0.023783
 4539 Fit       0.017292
 4540 Fit       0.018101
 4541 Fit       0.019582
 4542 Fit       0.022505
 4543 Fit       0.015060
 4544 Fit       0.015482
 4545 Fit       0.015914
 4546 Fit       0.016504
 4547 Fit       0.017624
 4548 Fit       0.019955
 4549 Fit       0.024413
 4550 Fit       0.013373
 4551 Fit       0.013630
 4552 Fit       0.013785
 4553 Fit       0.013844
 4554 Fit       0.013892
 4555 Fit       0.014160
 4556 Fit       0.015112
 4557 Fit       0.017559
 4558 Fit       0.011885
 4559 Fit       0.011955
 4560 Fit       0.011910
 4561 Fit       0.011697
 4562 Fit       0.011306
 4563 Fit       0.010797
 4564 Fit       0.010356
 4565 Fit       0.010384
 4566 Fit       0.011670
 4567 Fit       0.010272
 4568 Fit       0.010164
 4569 Fit       0.009960
 4570 Fit       0.009570
 4571 Fit       0.008932
 4572 Fit       0.008017
 4573 Fit       0.006848
 4574 Fit       0.005534
 4575 Fit       0.004362
 4576 Fit       0.003977
 4577 Fit       0.008514
 4578 Fit       0.008238
 4579 Fit       0.007951
 4580 Fit       0.007508
 4581 Fit       0.006799
 4582 Fit       0.005736
 4583 Fit       0.004250
 4584 Fit       0.002292
 4585 Fit      -0.000137
 4586 Fit      -0.002919
 4587 Fit       0.006017
 4588 Fit       0.005649
 4589 Fit       0.005191
 4590 Fit       0.004497
 4591 Fit       0.003447
 4592 Fit       0.001928
 4593 Fit      -0.000176
 4594 Fit      -0.002996
 4595 Fit      -0.006679
 4596 Fit       0.002780
 4597 Fit       0.002285
 4598 Fit       0.001550
 4599 Fit       0.000433
 4600 Fit      -0.001204
 4601 Fit      -0.003517
 4602 Fit      -0.006704
 4603 Fit      -0.011039
 4604 Fit      -0.000959
 4605 Fit      -0.001576
 4606 Fit      -0.002568
 4607 Fit      -0.004105
 4608 Fit      -0.006376
 4609 Fit      -0.009623
 4610 Fit      -0.014194
 4611 Fit      -0.020632
 4612 Fit      -0.006561
 4613 Fit      -0.008115
 4614 Fit      -0.010540
 4615 Fit      -0.014141
 4616 Fit      -0.019374
 4617 Fit      -0.012775
 4618 Fit      -0.015191
 4619 Fit      -0.018942
 4620 Fit      -0.024544
 4621 Fit       0.031858
 4622 Fit       0.026929
 4623 Fit       0.022317
 4624 Fit       0.026261
 4625 Fit       0.021007
 4626 Fit       0.016205
 4627 Fit       0.012182
 4628 Fit       0.022511
 4629 Fit       0.017060
 4630 Fit       0.012058
 4631 Fit       0.007707
 4632 Fit       0.004033
 4633 Fit       0.014911
 4634 Fit       0.009094
 4635 Fit       0.004100
 4636 Fit      -0.000091
 4637 Fit      -0.003605
 4638 Fit       0.006087
 4639 Fit       0.000331
 4640 Fit      -0.004367
 4641 Fit      -0.008174
 4642 Fit      -0.011289
 4643 Fit       0.000296
 4644 Fit      -0.006024
 4645 Fit      -0.020190
 4646 Fit       0.020433
 4647 Fit      -0.012982
 4648 Fit      -0.003121
 4649 Fit       0.007115
 4650 Fit       0.017647
 4651 Fit      -0.006437
 4652 Fit       0.003703
 4653 Fit       0.013773
 4654 Fit       0.004595
 4655 Fit       0.027997
 4656 Fit       0.024310
 4657 Fit       0.022783
 4658 Fit       0.026067
 4659 Fit       0.030830
 4660 Fit       0.033773
 4661 Fit       0.030498
 4662 Fit       0.019526
 4663 Fit       0.016753
 4664 Fit       0.017860
 4665 Fit       0.020994
 4666 Fit       0.024664
 4667 Fit       0.028541
 4668 Fit       0.032919
 4669 Fit       0.037587
 4670 Fit       0.040566
 4671 Fit       0.039262
 4672 Fit       0.033650
 4673 Fit       0.026038
 4674 Fit       0.013193
 4675 Fit       0.009754
 4676 Fit       0.010173
 4677 Fit       0.013081
 4678 Fit       0.016842
 4679 Fit       0.020501
 4680 Fit       0.023790
 4681 Fit       0.026873
 4682 Fit       0.030184
 4683 Fit       0.034268
 4684 Fit       0.039467
 4685 Fit       0.045174
 4686 Fit       0.049058
 4687 Fit       0.044718
 4688 Fit       0.037563
 4689 Fit       0.028952
 4690 Fit       0.020202
 4691 Fit       0.004318
 4692 Fit       0.009262
 4693 Fit       0.014066
 4694 Fit       0.018198
 4695 Fit       0.021592
 4696 Fit       0.024379
 4697 Fit       0.026850
 4698 Fit       0.029449
 4699 Fit       0.032719
 4700 Fit       0.037305
 4701 Fit       0.052534
 4702 Fit       0.043929
 4703 Fit       0.034197
 4704 Fit       0.023613
 4705 Fit       0.007379
 4706 Fit       0.013137
 4707 Fit       0.017699
 4708 Fit       0.021258
 4709 Fit       0.023955
 4710 Fit       0.026002
 4711 Fit       0.027793
 4712 Fit       0.029820
 4713 Fit       0.032574
 4714 Fit       0.053590
 4715 Fit       0.042786
 4716 Fit       0.030955
 4717 Fit       0.026532
 4718 Fit       0.053528
 4719 Fit      -0.006708
 4720 Fit      -0.011938
 4721 Fit      -0.015814
 4722 Fit      -0.018732
 4723 Fit      -0.021010
 4724 Fit      -0.010374
 4725 Fit      -0.015582
 4726 Fit      -0.019435
 4727 Fit      -0.022345
 4728 Fit      -0.024583
 4729 Fit      -0.026354
 4730 Fit      -0.027866
 4731 Fit      -0.014083
 4732 Fit      -0.019037
 4733 Fit      -0.022704
 4734 Fit      -0.025496
 4735 Fit      -0.027663
 4736 Fit      -0.029364
 4737 Fit      -0.030716
 4738 Fit      -0.031832
 4739 Fit      -0.032859
 4740 Fit      -0.019696
 4741 Fit      -0.023776
 4742 Fit      -0.026842
 4743 Fit      -0.029216
 4744 Fit      -0.031087
 4745 Fit      -0.032573
 4746 Fit      -0.033748
 4747 Fit      -0.034670
 4748 Fit      -0.035397
 4749 Fit      -0.036019
 4750 Fit      -0.036680
 4751 Fit      -0.023645
 4752 Fit      -0.027239
 4753 Fit      -0.029963
 4754 Fit      -0.032091
 4755 Fit      -0.033784
 4756 Fit      -0.035140
 4757 Fit      -0.036213
 4758 Fit      -0.037036
 4759 Fit      -0.037628
 4760 Fit      -0.038016
 4761 Fit      -0.038246
 4762 Fit      -0.038404
 4763 Fit      -0.027870
 4764 Fit      -0.030679
 4765 Fit      -0.032891
 4766 Fit      -0.034665
 4767 Fit      -0.036107
 4768 Fit      -0.037281
 4769 Fit      -0.038223
 4770 Fit      -0.038945
 4771 Fit      -0.039446
 4772 Fit      -0.039717
 4773 Fit      -0.039756
 4774 Fit      -0.039572
 4775 Fit      -0.039191
 4776 Fit      -0.038660
 4777 Fit      -0.030848
 4778 Fit      -0.032874
 4779 Fit      -0.034657
 4780 Fit      -0.036178
 4781 Fit      -0.037462
 4782 Fit      -0.038541
 4783 Fit      -0.039435
 4784 Fit      -0.040150
 4785 Fit      -0.040677
 4786 Fit      -0.040993
 4787 Fit      -0.041073
 4788 Fit      -0.040886
 4789 Fit      -0.040406
 4790 Fit      -0.039613
 4791 Fit      -0.038485
 4792 Fit      -0.036988
 4793 Fit      -0.036082
 4794 Fit      -0.036510
 4795 Fit      -0.037366
 4796 Fit      -0.038316
 4797 Fit      -0.039225
 4798 Fit      -0.040046
 4799 Fit      -0.040755
 4800 Fit      -0.041337
 4801 Fit      -0.041768
 4802 Fit      -0.042016
 4803 Fit      -0.042039
 4804 Fit      -0.041790
 4805 Fit      -0.041220
 4806 Fit      -0.040276
 4807 Fit      -0.038903
 4808 Fit      -0.037030
 4809 Fit      -0.034550
 4810 Fit      -0.040670
 4811 Fit      -0.040332
 4812 Fit      -0.040523
 4813 Fit      -0.040933
 4814 Fit      -0.041408
 4815 Fit      -0.041871
 4816 Fit      -0.042272
 4817 Fit      -0.042573
 4818 Fit      -0.042728
 4819 Fit      -0.042689
 4820 Fit      -0.042400
 4821 Fit      -0.041798
 4822 Fit      -0.040818
 4823 Fit      -0.039389
 4824 Fit      -0.037428
 4825 Fit      -0.034833
 4826 Fit      -0.031463
 4827 Fit      -0.027123
 4828 Fit      -0.021559
 4829 Fit      -0.043798
 4830 Fit      -0.042864
 4831 Fit      -0.042573
 4832 Fit      -0.042603
 4833 Fit      -0.042771
 4834 Fit      -0.042970
 4835 Fit      -0.043128
 4836 Fit      -0.043182
 4837 Fit      -0.043069
 4838 Fit      -0.042718
 4839 Fit      -0.042055
 4840 Fit      -0.040995
 4841 Fit      -0.039453
 4842 Fit      -0.037332
 4843 Fit      -0.034523
 4844 Fit      -0.030896
 4845 Fit      -0.026296
 4846 Fit      -0.020559
 4847 Fit      -0.013559
 4848 Fit      -0.046901
 4849 Fit      -0.045098
 4850 Fit      -0.044152
 4851 Fit      -0.043724
 4852 Fit      -0.043568
 4853 Fit      -0.043525
 4854 Fit      -0.043484
 4855 Fit      -0.043355
 4856 Fit      -0.043052
 4857 Fit      -0.042482
 4858 Fit      -0.041546
 4859 Fit      -0.040140
 4860 Fit      -0.038155
 4861 Fit      -0.035478
 4862 Fit      -0.031990
 4863 Fit      -0.027577
 4864 Fit      -0.022146
 4865 Fit      -0.015677
 4866 Fit      -0.008305
 4867 Fit      -0.047950
 4868 Fit      -0.046368
 4869 Fit      -0.045182
 4870 Fit      -0.044444
 4871 Fit      -0.044018
 4872 Fit      -0.043754
 4873 Fit      -0.043521
 4874 Fit      -0.043207
 4875 Fit      -0.042705
 4876 Fit      -0.041899
 4877 Fit      -0.040670
 4878 Fit      -0.038893
 4879 Fit      -0.036449
 4880 Fit      -0.033227
 4881 Fit      -0.029143
 4882 Fit      -0.024168
 4883 Fit      -0.018379
 4884 Fit      -0.012036
 4885 Fit      -0.005643
 4886 Fit       0.000045
 4887 Fit      -0.026443
 4888 Fit      -0.035477
 4889 Fit      -0.041625
 4890 Fit      -0.044438
 4891 Fit      -0.045030
 4892 Fit      -0.044706
 4893 Fit      -0.044213
 4894 Fit      -0.043789
 4895 Fit      -0.043420
 4896 Fit      -0.043011
 4897 Fit      -0.042437
 4898 Fit      -0.041559
 4899 Fit      -0.040227
 4900 Fit      -0.038289
 4901 Fit      -0.035610
 4902 Fit      -0.032098
 4903 Fit      -0.027744
 4904 Fit      -0.022687
 4905 Fit      -0.017296
 4906 Fit      -0.012244
 4907 Fit      -0.008520
 4908 Fit      -0.007371
 4909 Fit      -0.023136
 4910 Fit      -0.030325
 4911 Fit      -0.036805
 4912 Fit      -0.040766
 4913 Fit      -0.042418
 4914 Fit      -0.042809
 4915 Fit      -0.042681
 4916 Fit      -0.042283
 4917 Fit      -0.041586
 4918 Fit      -0.040435
 4919 Fit      -0.038627
 4920 Fit      -0.035977
 4921 Fit      -0.032396
 4922 Fit      -0.028003
 4923 Fit      -0.023266
 4924 Fit      -0.019123
 4925 Fit      -0.016945
 4926 Fit      -0.018137
 4927 Fit      -0.027906
 4928 Fit      -0.033523
 4929 Fit      -0.038074
 4930 Fit      -0.040274
 4931 Fit      -0.040801
 4932 Fit      -0.040326
 4933 Fit      -0.038947
 4934 Fit      -0.036487
 4935 Fit      -0.032886
 4936 Fit      -0.028642
 4937 Fit      -0.025166
 4938 Fit      -0.024534
 4939 Fit      -0.031664
 4940 Fit      -0.036099
 4941 Fit      -0.038135
 4942 Fit      -0.037047
 4943 Fit      -0.033617
 4944 Fit      -0.030342
 4945 Fit      -0.034657
 4946 Fit       0.029392
 4947 Fit       0.027902
 4948 Fit       0.022669
 4949 Fit       0.021251
 4950 Fit       0.023962
 4951 Fit       0.039152
 4952 Fit       0.030900
 4953 Fit       0.023501
 4954 Fit       0.017808
 4955 Fit       0.014441
 4956 Fit       0.013663
 4957 Fit       0.015467
 4958 Fit       0.019693
 4959 Fit       0.026082
 4960 Fit       0.034777
 4961 Fit       0.026819
 4962 Fit       0.019583
 4963 Fit       0.013651
 4964 Fit       0.009434
 4965 Fit       0.007100
 4966 Fit       0.006645
 4967 Fit       0.007986
 4968 Fit       0.011011
 4969 Fit       0.015609
 4970 Fit       0.021669
 4971 Fit       0.013745
 4972 Fit       0.007906
 4973 Fit       0.003682
 4974 Fit       0.001110
 4975 Fit       0.000114
 4976 Fit       0.000581
 4977 Fit       0.002400
 4978 Fit       0.005482
 4979 Fit       0.009758
 4980 Fit       0.015175
 4981 Fit       0.021682
 4982 Fit       0.005586
 4983 Fit       0.000345
 4984 Fit      -0.003235
 4985 Fit      -0.005278
 4986 Fit      -0.005947
 4987 Fit      -0.005387
 4988 Fit      -0.003715
 4989 Fit      -0.001009
 4990 Fit       0.002675
 4991 Fit       0.007306
 4992 Fit       0.012860
 4993 Fit       0.019324
 4994 Fit       0.026672
 4995 Fit      -0.007223
 4996 Fit      -0.009978
 4997 Fit      -0.011382
 4998 Fit      -0.011638
 4999 Fit      -0.010903
 5000 Fit      -0.009281
 5001 Fit      -0.006840
 5002 Fit      -0.003618
 5003 Fit       0.000362
 5004 Fit       0.005093
 5005 Fit       0.010576
 5006 Fit       0.016812
 5007 Fit       0.023804
 5008 Fit      -0.015867
 5009 Fit      -0.017112
 5010 Fit      -0.017310
 5011 Fit      -0.016651
 5012 Fit      -0.015256
 5013 Fit      -0.013191
 5014 Fit      -0.010494
 5015 Fit      -0.007176
 5016 Fit      -0.003240
 5017 Fit       0.001321
 5018 Fit       0.006517
 5019 Fit       0.012365
 5020 Fit       0.018877
 5021 Fit       0.026064
 5022 Fit      -0.023578
 5023 Fit      -0.023379
 5024 Fit      -0.022431
 5025 Fit      -0.020882
 5026 Fit      -0.018804
 5027 Fit      -0.016220
 5028 Fit      -0.013127
 5029 Fit      -0.009513
 5030 Fit      -0.005356
 5031 Fit      -0.000636
 5032 Fit       0.004673
 5033 Fit       0.010596
 5034 Fit       0.017160
 5035 Fit       0.024390
 5036 Fit       0.032299
 5037 Fit      -0.030655
 5038 Fit      -0.028868
 5039 Fit      -0.026744
 5040 Fit      -0.024332
 5041 Fit      -0.021625
 5042 Fit      -0.018584
 5043 Fit      -0.015167
 5044 Fit      -0.011329
 5045 Fit      -0.007028
 5046 Fit      -0.002227
 5047 Fit       0.003111
 5048 Fit       0.009024
 5049 Fit       0.015551
 5050 Fit       0.022734
 5051 Fit       0.030619
 5052 Fit       0.039255
 5053 Fit      -0.035211
 5054 Fit      -0.031839
 5055 Fit      -0.028558
 5056 Fit      -0.025263
 5057 Fit      -0.021843
 5058 Fit      -0.018198
 5059 Fit      -0.014243
 5060 Fit      -0.009909
 5061 Fit      -0.005135
 5062 Fit       0.000131
 5063 Fit       0.005941
 5064 Fit       0.012351
 5065 Fit       0.019423
 5066 Fit       0.027240
 5067 Fit       0.035913
 5068 Fit       0.045621
 5069 Fit      -0.034797
 5070 Fit      -0.030516
 5071 Fit      -0.026485
 5072 Fit      -0.022494
 5073 Fit      -0.018379
 5074 Fit      -0.014015
 5075 Fit      -0.009300
 5076 Fit      -0.004155
 5077 Fit       0.001495
 5078 Fit       0.007723
 5079 Fit       0.014614
 5080 Fit       0.022276
 5081 Fit       0.030866
 5082 Fit       0.040644
 5083 Fit      -0.036564
 5084 Fit      -0.031440
 5085 Fit      -0.026789
 5086 Fit      -0.022312
 5087 Fit      -0.017790
 5088 Fit      -0.013061
 5089 Fit      -0.008002
 5090 Fit      -0.002509
 5091 Fit       0.003512
 5092 Fit       0.010163
 5093 Fit       0.017568
 5094 Fit       0.025901
 5095 Fit       0.035436
 5096 Fit      -0.036588
 5097 Fit      -0.030626
 5098 Fit      -0.025287
 5099 Fit      -0.020175
 5100 Fit      -0.015013
 5101 Fit      -0.009601
 5102 Fit      -0.003780
 5103 Fit       0.002586
 5104 Fit       0.009636
 5105 Fit       0.017539
 5106 Fit       0.026523
 5107 Fit      -0.030991
 5108 Fit      -0.024690
 5109 Fit      -0.018765
 5110 Fit      -0.012824
 5111 Fit      -0.006589
 5112 Fit       0.000154
 5113 Fit       0.007599
 5114 Fit       0.015948
 5115 Fit       0.025442
 5116 Fit      -0.030251
 5117 Fit      -0.022995
 5118 Fit      -0.016211
 5119 Fit      -0.009398
 5120 Fit      -0.002208
 5121 Fit       0.005625
 5122 Fit       0.014320
 5123 Fit       0.024054
 5124 Fit      -0.023049
 5125 Fit      -0.014993
 5126 Fit      -0.007020
 5127 Fit       0.001346
 5128 Fit       0.010391
 5129 Fit       0.020198
 5130 Fit      -0.006373
 5131 Fit       0.042499
 5132 Fit       0.045977
 5133 Fit       0.044477
 5134 Fit       0.040633
 5135 Fit       0.038373
 5136 Fit       0.040471
 5137 Fit       0.044232
 5138 Fit       0.048934
 5139 Fit       0.048410
 5140 Fit       0.046577
 5141 Fit       0.043134
 5142 Fit       0.038650
 5143 Fit       0.034858
 5144 Fit       0.033471
 5145 Fit       0.034908
 5146 Fit       0.038287
 5147 Fit       0.042304
 5148 Fit       0.045837
 5149 Fit       0.048137
 5150 Fit       0.051520
 5151 Fit       0.051236
 5152 Fit       0.041770
 5153 Fit       0.036588
 5154 Fit       0.028972
 5155 Fit       0.031962
 5156 Fit       0.035869
 5157 Fit       0.040042
 5158 Fit       0.043985
 5159 Fit       0.047322
 5160 Fit       0.049765
 5161 Fit       0.051143
 5162 Fit       0.053962
 5163 Fit       0.027322
 5164 Fit       0.031648
 5165 Fit       0.036178
 5166 Fit       0.040590
 5167 Fit       0.044655
 5168 Fit       0.048185
 5169 Fit       0.051000
 5170 Fit       0.052931
 5171 Fit       0.053884
 5172 Fit       0.056657
 5173 Fit       0.030088
 5174 Fit       0.035082
 5175 Fit       0.039850
 5176 Fit       0.044270
 5177 Fit       0.048240
 5178 Fit       0.051640
 5179 Fit       0.054317
 5180 Fit       0.056101
 5181 Fit       0.056861
 5182 Fit       0.060326
 5183 Fit       0.028452
 5184 Fit       0.033791
 5185 Fit       0.038850
 5186 Fit       0.043585
 5187 Fit       0.047959
 5188 Fit       0.051910
 5189 Fit       0.055336
 5190 Fit       0.058077
 5191 Fit       0.059931
 5192 Fit       0.060702
 5193 Fit       0.034690
 5194 Fit       0.040181
 5195 Fit       0.045357
 5196 Fit       0.050222
 5197 Fit       0.054746
 5198 Fit       0.058836
 5199 Fit       0.062307
 5200 Fit       0.064887
 5201 Fit       0.035781
 5202 Fit       0.041697
 5203 Fit       0.047377
 5204 Fit       0.052876
 5205 Fit       0.058212
 5206 Fit       0.063320
 5207 Fit       0.035388
 5208 Fit       0.042001
 5209 Fit       0.048495
 5210 Fit       0.055011
 5211 Fit       0.046753
 5212 Fit       0.054766
 -----------------------------------------------------------------
 Leave Link  602 at Mon Feb  5 16:05:05 2024, MaxMem=   104857600 cpu:               0.4 elap:               0.4

 Test job not archived.
 1\1\GINC-TERPSICHORE\SP\RHF\6-31G(d)\C4H7N1O4\MASTER9\05-Feb-2024\0\\#
 HF/6-31G* scrf=smd SCF=tight Test Pop=MK iop(6/33=2) iop(6/42=6) # iop
 (6/50=1)\\calc RESP charges\\0,1\C,0,1.945005,-0.122547,0.043048\O,0,2
 .223559,0.711988,0.854591\O,0,2.917058,-0.80858,-0.53642\H,0,2.591082,
 -1.455762,-1.157105\C,0,0.544005,-0.483345,-0.377877\C,0,-0.524136,0.3
 90879,0.284763\H,0,0.406177,-1.530946,-0.128551\H,0,0.478714,-0.398226
 ,-1.457271\N,0,-0.475166,1.740759,-0.240857\H,0,0.385013,2.161785,0.05
 4592\H,0,-1.210682,2.284098,0.17202\C,0,-1.88911,-0.21491,0.004967\H,0
 ,-0.383597,0.347296,1.361518\O,0,-2.684896,0.236069,-0.763292\O,0,-2.1
 89693,-1.320379,0.670639\H,0,-1.52336,-1.566807,1.307245\\Version=EM64
 L-G16RevC.01\State=1-A\HF=-509.5054789\RMSD=7.610e-09\Dipole=0.8748954
 ,-1.8366865,0.6226166\Quadrupole=-16.4072833,10.0068583,6.400425,-5.59
 1384,-11.71125,2.2805599\PG=C01 [X(C4H7N1O4)]\\@


      HUMANKIND PERIODICALLY GOES THROUGH A SPEEDUP OF ITS AFFAIRS, 
      THEREBY EXPERIENCING THE RACE BETWEEN THE RENEWABLE VITALITY
      OF THE LIVING, AND THE BECKONING VITIATION OF DECADENCE.
      IN THIS PERIODIC RACE, ANY PAUSE BECOMES A LUXURY.
      ONLY THEN CAN ONE REFLECT THAT ALL IS PERMITTED;
      ALL IS POSSIBLE.

                              -- THE APOCRYPHA OF MUAD'DIB
                                 CHILDREN OF DUNE, BY FRANK HERBERT
 Job cpu time:       0 days  0 hours  0 minutes 17.0 seconds.
 Elapsed time:       0 days  0 hours  0 minutes 17.2 seconds.
 File lengths (MBytes):  RWF=     35 Int=      0 D2E=      0 Chk=      3 Scr=      1
 Normal termination of Gaussian 16 at Mon Feb  5 16:05:05 2024.
