 Entering Gaussian System, Link 0=g16
 Input=ASN.com
 Output=ASN.log
 Initial command:
 /apps/versions/2023.01/rocky8/x86_64/generic/software/Gaussian/16.B.01/g16/l1.exe "/home3/p315462/Project/evb_solvent/reactant/ASN/Gau-1173720.inp" -scrdir="/home3/p315462/Project/evb_solvent/reactant/ASN/"
 Entering Link 1 = /apps/versions/2023.01/rocky8/x86_64/generic/software/Gaussian/16.B.01/g16/l1.exe PID=   1173721.
  
 Copyright (c) 1988-2017, Gaussian, Inc.  All Rights Reserved.
  
 This is part of the Gaussian(R) 16 program.  It is based on
 the Gaussian(R) 09 system (copyright 2009, Gaussian, Inc.),
 the Gaussian(R) 03 system (copyright 2003, Gaussian, Inc.),
 the Gaussian(R) 98 system (copyright 1998, Gaussian, Inc.),
 the Gaussian(R) 94 system (copyright 1995, Gaussian, Inc.),
 the Gaussian 92(TM) system (copyright 1992, Gaussian, Inc.),
 the Gaussian 90(TM) system (copyright 1990, Gaussian, Inc.),
 the Gaussian 88(TM) system (copyright 1988, Gaussian, Inc.),
 the Gaussian 86(TM) system (copyright 1986, Carnegie Mellon
 University), and the Gaussian 82(TM) system (copyright 1983,
 Carnegie Mellon University). Gaussian is a federally registered
 trademark of Gaussian, Inc.
  
 This software contains proprietary and confidential information,
 including trade secrets, belonging to Gaussian, Inc.
  
 This software is provided under written license and may be
 used, copied, transmitted, or stored only in accord with that
 written license.
  
 The following legend is applicable only to US Government
 contracts under FAR:
  
                    RESTRICTED RIGHTS LEGEND
  
 Use, reproduction and disclosure by the US Government is
 subject to restrictions as set forth in subparagraphs (a)
 and (c) of the Commercial Computer Software - Restricted
 Rights clause in FAR 52.227-19.
  
 Gaussian, Inc.
 340 Quinnipiac St., Bldg. 40, Wallingford CT 06492
  
  
 ---------------------------------------------------------------
 Warning -- This program may not be used in any manner that
 competes with the business of Gaussian, Inc. or will provide
 assistance to any competitor of Gaussian, Inc.  The licensee
 of this program is prohibited from giving any competitor of
 Gaussian, Inc. access to this program.  By using this program,
 the user acknowledges that Gaussian, Inc. is engaged in the
 business of creating and licensing software in the field of
 computational chemistry and represents and warrants to the
 licensee that it is not a competitor of Gaussian, Inc. and that
 it will not use this program in any manner prohibited above.
 ---------------------------------------------------------------
  

 Cite this work as:
 Gaussian 16, Revision B.01,
 M. J. Frisch, G. W. Trucks, H. B. Schlegel, G. E. Scuseria, 
 M. A. Robb, J. R. Cheeseman, G. Scalmani, V. Barone, 
 G. A. Petersson, H. Nakatsuji, X. Li, M. Caricato, A. V. Marenich, 
 J. Bloino, B. G. Janesko, R. Gomperts, B. Mennucci, H. P. Hratchian, 
 J. V. Ortiz, A. F. Izmaylov, J. L. Sonnenberg, D. Williams-Young, 
 F. Ding, F. Lipparini, F. Egidi, J. Goings, B. Peng, A. Petrone, 
 T. Henderson, D. Ranasinghe, V. G. Zakrzewski, J. Gao, N. Rega, 
 G. Zheng, W. Liang, M. Hada, M. Ehara, K. Toyota, R. Fukuda, 
 J. Hasegawa, M. Ishida, T. Nakajima, Y. Honda, O. Kitao, H. Nakai, 
 T. Vreven, K. Throssell, J. A. Montgomery, Jr., J. E. Peralta, 
 F. Ogliaro, M. J. Bearpark, J. J. Heyd, E. N. Brothers, K. N. Kudin, 
 V. N. Staroverov, T. A. Keith, R. Kobayashi, J. Normand, 
 K. Raghavachari, A. P. Rendell, J. C. Burant, S. S. Iyengar, 
 J. Tomasi, M. Cossi, J. M. Millam, M. Klene, C. Adamo, R. Cammi, 
 J. W. Ochterski, R. L. Martin, K. Morokuma, O. Farkas, 
 J. B. Foresman, and D. J. Fox, Gaussian, Inc., Wallingford CT, 2016.
 
 ******************************************
 Gaussian 16:  ES64L-G16RevB.01 20-Dec-2017
                27-Mar-2024 
 ******************************************
 %Mem=8192MB
 %NProcShared=8
 Will use up to    8 processors via shared memory.
 %chk=098457434.chk
 ----------------------------------
 #P B3LYP/6-31g* Opt=(MaxCycle=900)
 ----------------------------------
 1/6=900,18=20,19=15,26=3,38=1/1,3;
 2/9=110,12=2,17=6,18=5,40=1/2;
 3/5=1,6=6,7=1,11=2,25=1,30=1,71=1,74=-5/1,2,3;
 4//1;
 5/5=2,38=5/2;
 6/7=2,8=2,9=2,10=2,28=1/1;
 7//1,2,3,16;
 1/6=900,18=20,19=15,26=3/3(2);
 2/9=110/2;
 99//99;
 2/9=110/2;
 3/5=1,6=6,7=1,11=2,25=1,30=1,71=1,74=-5/1,2,3;
 4/5=5,16=3,69=1/1;
 5/5=2,38=5/2;
 7//1,2,3,16;
 1/6=900,18=20,19=15,26=3/3(-5);
 2/9=110/2;
 6/7=2,8=2,9=2,10=2,19=2,28=1/1;
 99/9=1/99;
 Leave Link    1 at Wed Mar 27 14:09:42 2024, MaxMem=  1073741824 cpu:               0.5 elap:               0.2
 (Enter /apps/versions/2023.01/rocky8/x86_64/generic/software/Gaussian/16.B.01/g16/l101.exe)
 -------------------
 Asparagine molecule
 -------------------
 Symbolic Z-matrix:
 Charge =  0 Multiplicity = 1
 C                     2.937     3.003     3.568 
 H                     2.468     3.109     4.549 
 H                     3.45      3.932     3.309 
 H                     3.678     2.2       3.643 
 C                     1.877     2.59      2.563 
 O                     1.108     1.654     2.823 
 N                     1.852     3.268     1.397 
 H                     1.172     3.041     0.664 
 H                     2.469     4.05      1.247 
 
 ITRead=  0  0  0  0  0  0  0  0  0
 MicOpt= -1 -1 -1 -1 -1 -1 -1 -1 -1
 NAtoms=      9 NQM=        9 NQMF=       0 NMMI=      0 NMMIF=      0
                NMic=       0 NMicF=      0.
                    Isotopes and Nuclear Properties:
 (Nuclear quadrupole moments (NQMom) in fm**2, nuclear magnetic moments (NMagM)
  in nuclear magnetons)

  Atom         1           2           3           4           5           6           7           8           9
 IAtWgt=          12           1           1           1          12          16          14           1           1
 AtmWgt=  12.0000000   1.0078250   1.0078250   1.0078250  12.0000000  15.9949146  14.0030740   1.0078250   1.0078250
 NucSpn=           0           1           1           1           0           0           2           1           1
 AtZEff=  -0.0000000  -0.0000000  -0.0000000  -0.0000000  -0.0000000  -0.0000000  -0.0000000  -0.0000000  -0.0000000
 NQMom=    0.0000000   0.0000000   0.0000000   0.0000000   0.0000000   0.0000000   2.0440000   0.0000000   0.0000000
 NMagM=    0.0000000   2.7928460   2.7928460   2.7928460   0.0000000   0.0000000   0.4037610   2.7928460   2.7928460
 AtZNuc=   6.0000000   1.0000000   1.0000000   1.0000000   6.0000000   8.0000000   7.0000000   1.0000000   1.0000000
 Leave Link  101 at Wed Mar 27 14:09:45 2024, MaxMem=  1073741824 cpu:               4.6 elap:               2.3
 (Enter /apps/versions/2023.01/rocky8/x86_64/generic/software/Gaussian/16.B.01/g16/l103.exe)

 GradGradGradGradGradGradGradGradGradGradGradGradGradGradGradGradGradGrad
 Berny optimization.
 Initialization pass.
                           ----------------------------
                           !    Initial Parameters    !
                           ! (Angstroms and Degrees)  !
 --------------------------                            --------------------------
 ! Name  Definition              Value          Derivative Info.                !
 --------------------------------------------------------------------------------
 ! R1    R(1,2)                  1.0925         estimate D2E/DX2                !
 ! R2    R(1,3)                  1.0924         estimate D2E/DX2                !
 ! R3    R(1,4)                  1.0952         estimate D2E/DX2                !
 ! R4    R(1,5)                  1.518          estimate D2E/DX2                !
 ! R5    R(5,6)                  1.239          estimate D2E/DX2                !
 ! R6    R(5,7)                  1.349          estimate D2E/DX2                !
 ! R7    R(7,8)                  1.0253         estimate D2E/DX2                !
 ! R8    R(7,9)                  1.0073         estimate D2E/DX2                !
 ! A1    A(2,1,3)              109.3895         estimate D2E/DX2                !
 ! A2    A(2,1,4)              107.4632         estimate D2E/DX2                !
 ! A3    A(2,1,5)              108.7309         estimate D2E/DX2                !
 ! A4    A(3,1,4)              108.7859         estimate D2E/DX2                !
 ! A5    A(3,1,5)              113.7249         estimate D2E/DX2                !
 ! A6    A(4,1,5)              108.5609         estimate D2E/DX2                !
 ! A7    A(1,5,6)              120.0019         estimate D2E/DX2                !
 ! A8    A(1,5,7)              116.6442         estimate D2E/DX2                !
 ! A9    A(6,5,7)              123.3371         estimate D2E/DX2                !
 ! A10   A(5,7,8)              121.2614         estimate D2E/DX2                !
 ! A11   A(5,7,9)              120.4986         estimate D2E/DX2                !
 ! A12   A(8,7,9)              118.1416         estimate D2E/DX2                !
 ! D1    D(2,1,5,6)            -48.62           estimate D2E/DX2                !
 ! D2    D(2,1,5,7)            132.8242         estimate D2E/DX2                !
 ! D3    D(3,1,5,6)           -170.7564         estimate D2E/DX2                !
 ! D4    D(3,1,5,7)             10.6877         estimate D2E/DX2                !
 ! D5    D(4,1,5,6)             68.0031         estimate D2E/DX2                !
 ! D6    D(4,1,5,7)           -110.5527         estimate D2E/DX2                !
 ! D7    D(1,5,7,8)            179.3422         estimate D2E/DX2                !
 ! D8    D(1,5,7,9)             -4.3315         estimate D2E/DX2                !
 ! D9    D(6,5,7,8)              0.8392         estimate D2E/DX2                !
 ! D10   D(6,5,7,9)            177.1655         estimate D2E/DX2                !
 --------------------------------------------------------------------------------
 Trust Radius=3.00D-01 FncErr=1.00D-07 GrdErr=1.00D-06 EigMax=2.50D+02 EigMin=1.00D-04
 Number of steps in this run=    100 maximum allowed number of steps=    100.
 GradGradGradGradGradGradGradGradGradGradGradGradGradGradGradGradGradGrad

 Leave Link  103 at Wed Mar 27 14:09:45 2024, MaxMem=  1073741824 cpu:               0.1 elap:               0.0
 (Enter /apps/versions/2023.01/rocky8/x86_64/generic/software/Gaussian/16.B.01/g16/l202.exe)
                          Input orientation:                          
 ---------------------------------------------------------------------
 Center     Atomic      Atomic             Coordinates (Angstroms)
 Number     Number       Type             X           Y           Z
 ---------------------------------------------------------------------
      1          6           0        2.937000    3.003000    3.568000
      2          1           0        2.468000    3.109000    4.549000
      3          1           0        3.450000    3.932000    3.309000
      4          1           0        3.678000    2.200000    3.643000
      5          6           0        1.877000    2.590000    2.563000
      6          8           0        1.108000    1.654000    2.823000
      7          7           0        1.852000    3.268000    1.397000
      8          1           0        1.172000    3.041000    0.664000
      9          1           0        2.469000    4.050000    1.247000
 ---------------------------------------------------------------------
                    Distance matrix (angstroms):
                    1          2          3          4          5
     1  C    0.000000
     2  H    1.092501   0.000000
     3  H    1.092379   1.783046   0.000000
     4  H    1.095224   1.763864   1.778585   0.000000
     5  C    1.517957   2.136080   2.198138   2.135908   0.000000
     6  O    2.391666   2.635470   3.303096   2.752347   1.238974
     7  N    2.441453   3.215562   2.578807   3.085355   1.349024
     8  H    3.398512   4.096030   3.602664   3.982682   2.075241
     9  H    2.588875   3.433466   2.286510   3.259601   2.052783
                    6          7          8          9
     6  O    0.000000
     7  N    2.278598   0.000000
     8  H    2.566933   1.025289   0.000000
     9  H    3.174415   1.007330   1.743611   0.000000
 Stoichiometry    C2H5NO
 Framework group  C1[X(C2H5NO)]
 Deg. of freedom    21
 Full point group                 C1      NOp   1
 Largest Abelian subgroup         C1      NOp   1
 Largest concise Abelian subgroup C1      NOp   1
                         Standard orientation:                         
 ---------------------------------------------------------------------
 Center     Atomic      Atomic             Coordinates (Angstroms)
 Number     Number       Type             X           Y           Z
 ---------------------------------------------------------------------
      1          6           0        1.344957   -0.384330    0.000471
      2          1           0        1.914554    0.144579   -0.767235
      3          1           0        1.423087   -1.460933   -0.167199
      4          1           0        1.796963   -0.144470    0.968806
      5          6           0       -0.082049    0.133139   -0.008102
      6          8           0       -0.298746    1.352996   -0.001252
      7          7           0       -1.061870   -0.793996    0.007242
      8          1           0       -2.050699   -0.523065    0.012816
      9          1           0       -0.838298   -1.774963   -0.042080
 ---------------------------------------------------------------------
 Rotational constants (GHZ):          10.7396527           9.2825655           5.1380693
 Leave Link  202 at Wed Mar 27 14:09:45 2024, MaxMem=  1073741824 cpu:               0.0 elap:               0.0
 (Enter /apps/versions/2023.01/rocky8/x86_64/generic/software/Gaussian/16.B.01/g16/l301.exe)
 Standard basis: 6-31G(d) (6D, 7F)
 Ernie: Thresh=  0.10000D-02 Tol=  0.10000D-05 Strict=F.
 There are    70 symmetry adapted cartesian basis functions of A   symmetry.
 There are    70 symmetry adapted basis functions of A   symmetry.
    70 basis functions,   132 primitive gaussians,    70 cartesian basis functions
    16 alpha electrons       16 beta electrons
       nuclear repulsion energy       121.2647988001 Hartrees.
 IExCor=  402 DFT=T Ex+Corr=B3LYP ExCW=0 ScaHFX=  0.200000
 ScaDFX=  0.800000  0.720000  1.000000  0.810000 ScalE2=  1.000000  1.000000
 IRadAn=      5 IRanWt=     -1 IRanGd=            0 ICorTp=0 IEmpDi=  4
 NAtoms=    9 NActive=    9 NUniq=    9 SFac= 1.00D+00 NAtFMM=   60 NAOKFM=F Big=F
 Integral buffers will be    131072 words long.
 Raffenetti 2 integral format.
 Two-electron integral symmetry is turned on.
 Leave Link  301 at Wed Mar 27 14:09:45 2024, MaxMem=  1073741824 cpu:               0.5 elap:               0.2
 (Enter /apps/versions/2023.01/rocky8/x86_64/generic/software/Gaussian/16.B.01/g16/l302.exe)
 NPDir=0 NMtPBC=     1 NCelOv=     1 NCel=       1 NClECP=     1 NCelD=      1
         NCelK=      1 NCelE2=     1 NClLst=     1 CellRange=     0.0.
 One-electron integrals computed using PRISM.
 One-electron integral symmetry used in STVInt
 NBasis=    70 RedAO= T EigKep=  3.99D-03  NBF=    70
 NBsUse=    70 1.00D-06 EigRej= -1.00D+00 NBFU=    70
 Precomputing XC quadrature grid using
 IXCGrd= 4 IRadAn=           5 IRanWt=          -1 IRanGd=           0 AccXCQ= 0.00D+00.
 Generated NRdTot=       0 NPtTot=           0 NUsed=           0 NTot=          32
 NSgBfM=    70    70    70    70    70 MxSgAt=     9 MxSgA2=     9.
 Leave Link  302 at Wed Mar 27 14:09:46 2024, MaxMem=  1073741824 cpu:               1.6 elap:               0.7
 (Enter /apps/versions/2023.01/rocky8/x86_64/generic/software/Gaussian/16.B.01/g16/l303.exe)
 DipDrv:  MaxL=1.
 Leave Link  303 at Wed Mar 27 14:09:46 2024, MaxMem=  1073741824 cpu:               0.4 elap:               0.1
 (Enter /apps/versions/2023.01/rocky8/x86_64/generic/software/Gaussian/16.B.01/g16/l401.exe)
 ExpMin= 1.61D-01 ExpMax= 5.48D+03 ExpMxC= 8.25D+02 IAcc=3 IRadAn=         5 AccDes= 0.00D+00
 Harris functional with IExCor=  402 and IRadAn=       5 diagonalized for initial guess.
 HarFok:  IExCor=  402 AccDes= 0.00D+00 IRadAn=         5 IDoV= 1 UseB2=F ITyADJ=14
 ICtDFT=  3500011 ScaDFX=  1.000000  1.000000  1.000000  1.000000
 FoFCou: FMM=F IPFlag=           0 FMFlag=      100000 FMFlg1=           0
         NFxFlg=           0 DoJE=T BraDBF=F KetDBF=T FulRan=T
         wScrn=  0.000000 ICntrl=       500 IOpCl=  0 I1Cent=   200000004 NGrid=           0
         NMat0=    1 NMatS0=      1 NMatT0=    0 NMatD0=    1 NMtDS0=    0 NMtDT0=    0
 Petite list used in FoFCou.
 Harris En= -209.249207550238    
 JPrj=0 DoOrth=F DoCkMO=F.
 Leave Link  401 at Wed Mar 27 14:09:48 2024, MaxMem=  1073741824 cpu:               2.6 elap:               1.3
 (Enter /apps/versions/2023.01/rocky8/x86_64/generic/software/Gaussian/16.B.01/g16/l502.exe)
 Keep R1 ints in memory in canonical form, NReq=10237356.
 FoFCou: FMM=F IPFlag=           0 FMFlag=           0 FMFlg1=           0
         NFxFlg=           0 DoJE=F BraDBF=F KetDBF=F FulRan=T
         wScrn=  0.000000 ICntrl=       600 IOpCl=  0 I1Cent=           0 NGrid=           0
         NMat0=    1 NMatS0=   2485 NMatT0=    0 NMatD0=    1 NMtDS0=    0 NMtDT0=    0
 Symmetry not used in FoFCou.
 Two-electron integral symmetry not used.
 Closed shell SCF:
 Using DIIS extrapolation, IDIIS=  1040.
 NGot=  1073741824 LenX=  1070641648 LenY=  1070636307
 Requested convergence on RMS density matrix=1.00D-08 within 128 cycles.
 Requested convergence on MAX density matrix=1.00D-06.
 Requested convergence on             energy=1.00D-06.
 No special actions if energy rises.
 Integral accuracy reduced to 1.0D-05 until final iterations.

 Cycle   1  Pass 0  IDiag  1:
 E= -209.045126860928    
 DIIS: error= 4.17D-02 at cycle   1 NSaved=   1.
 NSaved= 1 IEnMin= 1 EnMin= -209.045126860928     IErMin= 1 ErrMin= 4.17D-02
 ErrMax= 4.17D-02  0.00D+00 EMaxC= 1.00D-01 BMatC= 1.89D-01 BMatP= 1.89D-01
 IDIUse=3 WtCom= 5.83D-01 WtEn= 4.17D-01
 Coeff-Com:  0.100D+01
 Coeff-En:   0.100D+01
 Coeff:      0.100D+01
 Gap=     0.259 Goal=   None    Shift=    0.000
 GapD=    0.259 DampG=1.000 DampE=0.500 DampFc=0.5000 IDamp=-1.
 Damping current iteration by 5.00D-01
 RMSDP=1.83D-02 MaxDP=3.21D-01              OVMax= 3.40D-01

 Cycle   2  Pass 0  IDiag  1:
 E= -209.082237234956     Delta-E=       -0.037110374029 Rises=F Damp=T
 DIIS: error= 1.66D-02 at cycle   2 NSaved=   2.
 NSaved= 2 IEnMin= 2 EnMin= -209.082237234956     IErMin= 2 ErrMin= 1.66D-02
 ErrMax= 1.66D-02  0.00D+00 EMaxC= 1.00D-01 BMatC= 3.29D-02 BMatP= 1.89D-01
 IDIUse=3 WtCom= 8.34D-01 WtEn= 1.66D-01
 Coeff-Com:  0.245D+00 0.755D+00
 Coeff-En:   0.383D+00 0.617D+00
 Coeff:      0.268D+00 0.732D+00
 Gap=     0.310 Goal=   None    Shift=    0.000
 RMSDP=5.84D-03 MaxDP=1.37D-01 DE=-3.71D-02 OVMax= 2.17D-01

 Cycle   3  Pass 0  IDiag  1:
 E= -209.183602674772     Delta-E=       -0.101365439815 Rises=F Damp=F
 DIIS: error= 1.66D-02 at cycle   3 NSaved=   3.
 NSaved= 3 IEnMin= 3 EnMin= -209.183602674772     IErMin= 3 ErrMin= 1.66D-02
 ErrMax= 1.66D-02  0.00D+00 EMaxC= 1.00D-01 BMatC= 3.15D-02 BMatP= 3.29D-02
 IDIUse=3 WtCom= 8.34D-01 WtEn= 1.66D-01
 Coeff-Com:  0.110D+00 0.485D+00 0.405D+00
 Coeff-En:   0.000D+00 0.000D+00 0.100D+01
 Coeff:      0.918D-01 0.405D+00 0.503D+00
 Gap=     0.265 Goal=   None    Shift=    0.000
 RMSDP=2.92D-03 MaxDP=4.50D-02 DE=-1.01D-01 OVMax= 9.12D-02

 Cycle   4  Pass 0  IDiag  1:
 E= -209.206731210945     Delta-E=       -0.023128536173 Rises=F Damp=F
 DIIS: error= 7.56D-03 at cycle   4 NSaved=   4.
 NSaved= 4 IEnMin= 4 EnMin= -209.206731210945     IErMin= 4 ErrMin= 7.56D-03
 ErrMax= 7.56D-03  0.00D+00 EMaxC= 1.00D-01 BMatC= 5.16D-03 BMatP= 3.15D-02
 IDIUse=3 WtCom= 9.24D-01 WtEn= 7.56D-02
 Coeff-Com:  0.162D-01 0.243D-01 0.285D+00 0.675D+00
 Coeff-En:   0.000D+00 0.000D+00 0.161D+00 0.839D+00
 Coeff:      0.150D-01 0.224D-01 0.275D+00 0.687D+00
 Gap=     0.272 Goal=   None    Shift=    0.000
 RMSDP=9.59D-04 MaxDP=1.59D-02 DE=-2.31D-02 OVMax= 2.90D-02

 Cycle   5  Pass 0  IDiag  1:
 E= -209.210723756674     Delta-E=       -0.003992545728 Rises=F Damp=F
 DIIS: error= 1.35D-03 at cycle   5 NSaved=   5.
 NSaved= 5 IEnMin= 5 EnMin= -209.210723756674     IErMin= 5 ErrMin= 1.35D-03
 ErrMax= 1.35D-03  0.00D+00 EMaxC= 1.00D-01 BMatC= 1.60D-04 BMatP= 5.16D-03
 IDIUse=3 WtCom= 9.86D-01 WtEn= 1.35D-02
 Coeff-Com:  0.352D-02-0.942D-02 0.129D+00 0.376D+00 0.501D+00
 Coeff-En:   0.000D+00 0.000D+00 0.000D+00 0.000D+00 0.100D+01
 Coeff:      0.347D-02-0.929D-02 0.128D+00 0.371D+00 0.508D+00
 Gap=     0.272 Goal=   None    Shift=    0.000
 RMSDP=1.82D-04 MaxDP=3.58D-03 DE=-3.99D-03 OVMax= 5.14D-03

 Cycle   6  Pass 0  IDiag  1:
 E= -209.210861004280     Delta-E=       -0.000137247607 Rises=F Damp=F
 DIIS: error= 2.89D-04 at cycle   6 NSaved=   6.
 NSaved= 6 IEnMin= 6 EnMin= -209.210861004280     IErMin= 6 ErrMin= 2.89D-04
 ErrMax= 2.89D-04  0.00D+00 EMaxC= 1.00D-01 BMatC= 6.77D-06 BMatP= 1.60D-04
 IDIUse=3 WtCom= 9.97D-01 WtEn= 2.89D-03
 Coeff-Com:  0.626D-03-0.482D-02 0.232D-01 0.644D-01 0.194D+00 0.723D+00
 Coeff-En:   0.000D+00 0.000D+00 0.000D+00 0.000D+00 0.000D+00 0.100D+01
 Coeff:      0.624D-03-0.481D-02 0.231D-01 0.642D-01 0.193D+00 0.724D+00
 Gap=     0.273 Goal=   None    Shift=    0.000
 RMSDP=3.77D-05 MaxDP=6.11D-04 DE=-1.37D-04 OVMax= 8.17D-04

 Cycle   7  Pass 0  IDiag  1:
 E= -209.210866887824     Delta-E=       -0.000005883544 Rises=F Damp=F
 DIIS: error= 3.33D-05 at cycle   7 NSaved=   7.
 NSaved= 7 IEnMin= 7 EnMin= -209.210866887824     IErMin= 7 ErrMin= 3.33D-05
 ErrMax= 3.33D-05  0.00D+00 EMaxC= 1.00D-01 BMatC= 1.82D-07 BMatP= 6.77D-06
 IDIUse=1 WtCom= 1.00D+00 WtEn= 0.00D+00
 Coeff-Com:  0.219D-03-0.146D-02 0.469D-02 0.108D-01 0.600D-01 0.272D+00
 Coeff-Com:  0.654D+00
 Coeff:      0.219D-03-0.146D-02 0.469D-02 0.108D-01 0.600D-01 0.272D+00
 Coeff:      0.654D+00
 Gap=     0.273 Goal=   None    Shift=    0.000
 RMSDP=8.83D-06 MaxDP=1.09D-04 DE=-5.88D-06 OVMax= 1.40D-04

 Initial convergence to 1.0D-05 achieved.  Increase integral accuracy.
 Cycle   8  Pass 1  IDiag  1:
 E= -209.210863829098     Delta-E=        0.000003058726 Rises=F Damp=F
 DIIS: error= 1.06D-05 at cycle   1 NSaved=   1.
 NSaved= 1 IEnMin= 1 EnMin= -209.210863829098     IErMin= 1 ErrMin= 1.06D-05
 ErrMax= 1.06D-05  0.00D+00 EMaxC= 1.00D-01 BMatC= 1.41D-08 BMatP= 1.41D-08
 IDIUse=1 WtCom= 1.00D+00 WtEn= 0.00D+00
 Coeff-Com:  0.100D+01
 Coeff:      0.100D+01
 Gap=     0.273 Goal=   None    Shift=    0.000
 RMSDP=8.83D-06 MaxDP=1.09D-04 DE= 3.06D-06 OVMax= 5.04D-05

 Cycle   9  Pass 1  IDiag  1:
 E= -209.210863823518     Delta-E=        0.000000005580 Rises=F Damp=F
 DIIS: error= 1.17D-05 at cycle   2 NSaved=   2.
 NSaved= 2 IEnMin= 1 EnMin= -209.210863829098     IErMin= 1 ErrMin= 1.06D-05
 ErrMax= 1.17D-05  0.00D+00 EMaxC= 1.00D-01 BMatC= 2.15D-08 BMatP= 1.41D-08
 IDIUse=1 WtCom= 1.00D+00 WtEn= 0.00D+00
 Coeff-Com:  0.555D+00 0.445D+00
 Coeff:      0.555D+00 0.445D+00
 Gap=     0.273 Goal=   None    Shift=    0.000
 RMSDP=1.94D-06 MaxDP=2.89D-05 DE= 5.58D-09 OVMax= 4.82D-05

 Cycle  10  Pass 1  IDiag  1:
 E= -209.210863841404     Delta-E=       -0.000000017886 Rises=F Damp=F
 DIIS: error= 4.38D-06 at cycle   3 NSaved=   3.
 NSaved= 3 IEnMin= 3 EnMin= -209.210863841404     IErMin= 3 ErrMin= 4.38D-06
 ErrMax= 4.38D-06  0.00D+00 EMaxC= 1.00D-01 BMatC= 1.56D-09 BMatP= 1.41D-08
 IDIUse=1 WtCom= 1.00D+00 WtEn= 0.00D+00
 Coeff-Com:  0.323D+00 0.296D+00 0.381D+00
 Coeff:      0.323D+00 0.296D+00 0.381D+00
 Gap=     0.273 Goal=   None    Shift=    0.000
 RMSDP=6.29D-07 MaxDP=1.01D-05 DE=-1.79D-08 OVMax= 1.66D-05

 Cycle  11  Pass 1  IDiag  1:
 E= -209.210863842615     Delta-E=       -0.000000001211 Rises=F Damp=F
 DIIS: error= 5.61D-07 at cycle   4 NSaved=   4.
 NSaved= 4 IEnMin= 4 EnMin= -209.210863842615     IErMin= 4 ErrMin= 5.61D-07
 ErrMax= 5.61D-07  0.00D+00 EMaxC= 1.00D-01 BMatC= 3.95D-11 BMatP= 1.56D-09
 IDIUse=1 WtCom= 1.00D+00 WtEn= 0.00D+00
 Coeff-Com:  0.334D-01 0.482D-01 0.144D+00 0.774D+00
 Coeff:      0.334D-01 0.482D-01 0.144D+00 0.774D+00
 Gap=     0.273 Goal=   None    Shift=    0.000
 RMSDP=9.35D-08 MaxDP=1.85D-06 DE=-1.21D-09 OVMax= 2.31D-06

 Cycle  12  Pass 1  IDiag  1:
 E= -209.210863842644     Delta-E=       -0.000000000029 Rises=F Damp=F
 DIIS: error= 2.62D-07 at cycle   5 NSaved=   5.
 NSaved= 5 IEnMin= 5 EnMin= -209.210863842644     IErMin= 5 ErrMin= 2.62D-07
 ErrMax= 2.62D-07  0.00D+00 EMaxC= 1.00D-01 BMatC= 6.47D-12 BMatP= 3.95D-11
 IDIUse=1 WtCom= 1.00D+00 WtEn= 0.00D+00
 Coeff-Com: -0.266D-02 0.674D-02 0.421D-01 0.370D+00 0.584D+00
 Coeff:     -0.266D-02 0.674D-02 0.421D-01 0.370D+00 0.584D+00
 Gap=     0.273 Goal=   None    Shift=    0.000
 RMSDP=3.59D-08 MaxDP=5.96D-07 DE=-2.92D-11 OVMax= 8.96D-07

 Cycle  13  Pass 1  IDiag  1:
 E= -209.210863842649     Delta-E=       -0.000000000005 Rises=F Damp=F
 DIIS: error= 8.37D-08 at cycle   6 NSaved=   6.
 NSaved= 6 IEnMin= 6 EnMin= -209.210863842649     IErMin= 6 ErrMin= 8.37D-08
 ErrMax= 8.37D-08  0.00D+00 EMaxC= 1.00D-01 BMatC= 7.38D-13 BMatP= 6.47D-12
 IDIUse=1 WtCom= 1.00D+00 WtEn= 0.00D+00
 Coeff-Com: -0.616D-02-0.313D-02-0.636D-03 0.753D-01 0.293D+00 0.641D+00
 Coeff:     -0.616D-02-0.313D-02-0.636D-03 0.753D-01 0.293D+00 0.641D+00
 Gap=     0.273 Goal=   None    Shift=    0.000
 RMSDP=1.14D-08 MaxDP=2.04D-07 DE=-5.17D-12 OVMax= 2.46D-07

 Cycle  14  Pass 1  IDiag  1:
 E= -209.210863842649     Delta-E=       -0.000000000000 Rises=F Damp=F
 DIIS: error= 1.63D-08 at cycle   7 NSaved=   7.
 NSaved= 7 IEnMin= 7 EnMin= -209.210863842649     IErMin= 7 ErrMin= 1.63D-08
 ErrMax= 1.63D-08  0.00D+00 EMaxC= 1.00D-01 BMatC= 2.40D-14 BMatP= 7.38D-13
 IDIUse=1 WtCom= 1.00D+00 WtEn= 0.00D+00
 Coeff-Com: -0.237D-02-0.141D-02-0.210D-02 0.189D-01 0.107D+00 0.266D+00
 Coeff-Com:  0.613D+00
 Coeff:     -0.237D-02-0.141D-02-0.210D-02 0.189D-01 0.107D+00 0.266D+00
 Coeff:      0.613D+00
 Gap=     0.273 Goal=   None    Shift=    0.000
 RMSDP=2.76D-09 MaxDP=3.82D-08 DE=-2.27D-13 OVMax= 4.26D-08

 SCF Done:  E(RB3LYP) =  -209.210863843     A.U. after   14 cycles
            NFock= 14  Conv=0.28D-08     -V/T= 2.0094
 KE= 2.072621089340D+02 PE=-7.312637957131D+02 EE= 1.935260241363D+02
 Leave Link  502 at Wed Mar 27 14:09:55 2024, MaxMem=  1073741824 cpu:              14.4 elap:               7.2
 (Enter /apps/versions/2023.01/rocky8/x86_64/generic/software/Gaussian/16.B.01/g16/l601.exe)
 Copying SCF densities to generalized density rwf, IOpCl= 0 IROHF=0.

 **********************************************************************

            Population analysis using the SCF Density.

 **********************************************************************

 Orbital symmetries:
       Occupied  (A) (A) (A) (A) (A) (A) (A) (A) (A) (A) (A) (A)
                 (A) (A) (A) (A)
       Virtual   (A) (A) (A) (A) (A) (A) (A) (A) (A) (A) (A) (A)
                 (A) (A) (A) (A) (A) (A) (A) (A) (A) (A) (A) (A)
                 (A) (A) (A) (A) (A) (A) (A) (A) (A) (A) (A) (A)
                 (A) (A) (A) (A) (A) (A) (A) (A) (A) (A) (A) (A)
                 (A) (A) (A) (A) (A) (A)
 The electronic state is 1-A.
 Alpha  occ. eigenvalues --  -19.09735 -14.36210 -10.28537 -10.19001  -1.01325
 Alpha  occ. eigenvalues --   -0.90414  -0.73531  -0.59293  -0.54011  -0.46425
 Alpha  occ. eigenvalues --   -0.44109  -0.40149  -0.38604  -0.36028  -0.26165
 Alpha  occ. eigenvalues --   -0.23765
 Alpha virt. eigenvalues --    0.03505   0.06621   0.11222   0.13416   0.17097
 Alpha virt. eigenvalues --    0.18093   0.23269   0.30949   0.40228   0.53020
 Alpha virt. eigenvalues --    0.53485   0.58136   0.63241   0.64326   0.67572
 Alpha virt. eigenvalues --    0.68700   0.72524   0.77463   0.85226   0.86818
 Alpha virt. eigenvalues --    0.87590   0.89372   0.92894   0.95226   1.04746
 Alpha virt. eigenvalues --    1.10431   1.20205   1.29249   1.33311   1.35978
 Alpha virt. eigenvalues --    1.43473   1.64994   1.68318   1.77261   1.83058
 Alpha virt. eigenvalues --    1.83240   1.88914   1.97110   2.02303   2.08829
 Alpha virt. eigenvalues --    2.21425   2.22223   2.28659   2.39557   2.44050
 Alpha virt. eigenvalues --    2.60083   2.64407   2.80337   2.96103   3.07007
 Alpha virt. eigenvalues --    3.78985   4.01050   4.15940   4.45781
          Condensed to atoms (all electrons):
               1          2          3          4          5          6
     1  C    5.343412   0.365823   0.325058   0.365820   0.329963  -0.091036
     2  H    0.365823   0.510614  -0.026132  -0.021968  -0.020717   0.001124
     3  H    0.325058  -0.026132   0.599570  -0.026827  -0.018126   0.003817
     4  H    0.365820  -0.021968  -0.026827   0.515949  -0.020478  -0.000411
     5  C    0.329963  -0.020717  -0.018126  -0.020478   4.284267   0.604018
     6  O   -0.091036   0.001124   0.003817  -0.000411   0.604018   8.072859
     7  N   -0.125489   0.002596   0.005776   0.001050   0.274037  -0.089059
     8  H    0.008464  -0.000189  -0.000291  -0.000196  -0.005321   0.005640
     9  H    0.003851  -0.000149   0.001159  -0.000052  -0.007964   0.003580
               7          8          9
     1  C   -0.125489   0.008464   0.003851
     2  H    0.002596  -0.000189  -0.000149
     3  H    0.005776  -0.000291   0.001159
     4  H    0.001050  -0.000196  -0.000052
     5  C    0.274037  -0.005321  -0.007964
     6  O   -0.089059   0.005640   0.003580
     7  N    7.086444   0.286910   0.291250
     8  H    0.286910   0.382476  -0.021424
     9  H    0.291250  -0.021424   0.396191
 Mulliken charges:
               1
     1  C   -0.525868
     2  H    0.188998
     3  H    0.135995
     4  H    0.187113
     5  C    0.580321
     6  O   -0.510532
     7  N   -0.733515
     8  H    0.343931
     9  H    0.333557
 Sum of Mulliken charges =  -0.00000
 Mulliken charges with hydrogens summed into heavy atoms:
               1
     1  C   -0.013762
     5  C    0.580321
     6  O   -0.510532
     7  N   -0.056028
 Electronic spatial extent (au):  <R**2>=            268.1823
 Charge=             -0.0000 electrons
 Dipole moment (field-independent basis, Debye):
    X=             -0.2172    Y=             -3.9014    Z=             -0.0385  Tot=              3.9076
 Quadrupole moment (field-independent basis, Debye-Ang):
   XX=            -19.6440   YY=            -25.7929   ZZ=            -24.5048
   XY=              2.3048   XZ=              0.0911   YZ=              0.1234
 Traceless Quadrupole moment (field-independent basis, Debye-Ang):
   XX=              3.6699   YY=             -2.4790   ZZ=             -1.1909
   XY=              2.3048   XZ=              0.0911   YZ=              0.1234
 Octapole moment (field-independent basis, Debye-Ang**2):
  XXX=            -12.3647  YYY=            -11.2790  ZZZ=              0.3141  XYY=             -2.2600
  XXY=             -1.2106  XXZ=              0.0326  XZZ=              0.7654  YZZ=              1.9469
  YYZ=             -0.4787  XYZ=             -0.2718
 Hexadecapole moment (field-independent basis, Debye-Ang**3):
 XXXX=           -148.4380 YYYY=           -122.4090 ZZZZ=            -28.0642 XXXY=              8.7334
 XXXZ=             -0.2878 YYYX=              7.6980 YYYZ=              0.8474 ZZZX=              0.7180
 ZZZY=             -0.0740 XXYY=            -49.4074 XXZZ=            -32.7802 YYZZ=            -27.3083
 XXYZ=             -0.3251 YYXZ=             -0.0958 ZZXY=              0.1943
 N-N= 1.212647988001D+02 E-N=-7.312637976962D+02  KE= 2.072621089340D+02
 No NMR shielding tensors so no spin-rotation constants.
 Leave Link  601 at Wed Mar 27 14:09:55 2024, MaxMem=  1073741824 cpu:               1.0 elap:               0.5
 (Enter /apps/versions/2023.01/rocky8/x86_64/generic/software/Gaussian/16.B.01/g16/l701.exe)
 ... and contract with generalized density number  0.
 Compute integral first derivatives.
 Leave Link  701 at Wed Mar 27 14:09:56 2024, MaxMem=  1073741824 cpu:               0.9 elap:               0.4
 (Enter /apps/versions/2023.01/rocky8/x86_64/generic/software/Gaussian/16.B.01/g16/l702.exe)
 L702 exits ... SP integral derivatives will be done elsewhere.
 Leave Link  702 at Wed Mar 27 14:09:56 2024, MaxMem=  1073741824 cpu:               0.3 elap:               0.1
 (Enter /apps/versions/2023.01/rocky8/x86_64/generic/software/Gaussian/16.B.01/g16/l703.exe)
 Integral derivatives from FoFJK, PRISM(SPDF).
 Compute integral first derivatives, UseDBF=F ICtDFT=           0.
 Calling FoFJK, ICntrl=      2127 FMM=F ISym2X=0 I1Cent= 0 IOpClX= 0 NMat=1 NMatS=1 NMatT=0.
 FoFJK:  IHMeth= 1 ICntrl=    2127 DoSepK=F KAlg= 0 I1Cent=           0 FoldK=F
 IRaf=         0 NMat=       1 IRICut=       1 DoRegI=T DoRafI=F ISym2E= 0 IDoP0=0 IntGTp=1.
 FoFCou: FMM=F IPFlag=           0 FMFlag=      100000 FMFlg1=         800
         NFxFlg=           0 DoJE=F BraDBF=F KetDBF=F FulRan=T
         wScrn=  0.000000 ICntrl=      2127 IOpCl=  0 I1Cent=           0 NGrid=           0
         NMat0=    1 NMatS0=      1 NMatT0=    0 NMatD0=    1 NMtDS0=    0 NMtDT0=    0
 Symmetry not used in FoFCou.
 Leave Link  703 at Wed Mar 27 14:09:58 2024, MaxMem=  1073741824 cpu:               4.6 elap:               2.2
 (Enter /apps/versions/2023.01/rocky8/x86_64/generic/software/Gaussian/16.B.01/g16/l716.exe)
 Dipole        =-8.54435182D-02-1.53492591D+00-1.51558083D-02
 ***** Axes restored to original set *****
 -------------------------------------------------------------------
 Center     Atomic                   Forces (Hartrees/Bohr)
 Number     Number              X              Y              Z
 -------------------------------------------------------------------
      1        6           0.001912069    0.002148198   -0.001365161
      2        1          -0.000306041    0.000132166   -0.000117544
      3        1           0.001726001    0.001699351    0.000524612
      4        1           0.000016205    0.000309062   -0.000052509
      5        6          -0.017760386   -0.030157692    0.019043075
      6        8           0.011177594    0.016490971   -0.008439777
      7        7          -0.004008177    0.007733238   -0.018627747
      8        1           0.007380913    0.000611670    0.011684606
      9        1          -0.000138178    0.001033037   -0.002649555
 -------------------------------------------------------------------
 Cartesian Forces:  Max     0.030157692 RMS     0.009989859
 Leave Link  716 at Wed Mar 27 14:09:58 2024, MaxMem=  1073741824 cpu:               0.3 elap:               0.1
 (Enter /apps/versions/2023.01/rocky8/x86_64/generic/software/Gaussian/16.B.01/g16/l103.exe)

 GradGradGradGradGradGradGradGradGradGradGradGradGradGradGradGradGradGrad
 Berny optimization.
 FormGI is forming the generalized inverse of G from B-inverse, IUseBI=4.
 Internal  Forces:  Max     0.021167098 RMS     0.005658039
 Search for a local minimum.
 Step number   1 out of a maximum of  100
 All quantities printed in internal units (Hartrees-Bohrs-Radians)
 RMS Force = .56580D-02 SwitMx=.10000D-02 MixMth= 1
 Mixed Optimization -- RFO/linear search
 Second derivative matrix not updated -- first step.
 ITU=  0
     Eigenvalues ---    0.00528   0.01297   0.02366   0.02379   0.06860
     Eigenvalues ---    0.07558   0.16000   0.16000   0.16000   0.16000
     Eigenvalues ---    0.16000   0.24993   0.25000   0.30564   0.34216
     Eigenvalues ---    0.34525   0.34539   0.43505   0.46423   0.55230
     Eigenvalues ---    0.87447
 RFO step:  Lambda=-2.04435411D-03 EMin= 5.28408462D-03
 Linear search not attempted -- first point.
 Iteration  1 RMS(Cart)=  0.01809617 RMS(Int)=  0.00028978
 Iteration  2 RMS(Cart)=  0.00031573 RMS(Int)=  0.00003998
 Iteration  3 RMS(Cart)=  0.00000009 RMS(Int)=  0.00003998
 ITry= 1 IFail=0 DXMaxC= 5.90D-02 DCOld= 1.00D+10 DXMaxT= 3.00D-01 DXLimC= 3.00D+00 Rises=F
 Variable       Old X    -DE/DX   Delta X   Delta X   Delta X     New X
                                 (Linear)    (Quad)   (Total)
    R1        2.06453   0.00004   0.00000   0.00011   0.00011   2.06464
    R2        2.06430   0.00213   0.00000   0.00613   0.00613   2.07043
    R3        2.06967  -0.00022   0.00000  -0.00064  -0.00064   2.06904
    R4        2.86852   0.00284   0.00000   0.00922   0.00922   2.87774
    R5        2.34132  -0.02117   0.00000  -0.02415  -0.02415   2.31717
    R6        2.54929   0.01294   0.00000   0.02335   0.02335   2.57264
    R7        1.93752  -0.01338   0.00000  -0.03062  -0.03062   1.90689
    R8        1.90358   0.00111   0.00000   0.00238   0.00238   1.90596
    A1        1.90921  -0.00054   0.00000  -0.00331  -0.00330   1.90591
    A2        1.87559   0.00017   0.00000  -0.00024  -0.00024   1.87534
    A3        1.89771  -0.00081   0.00000  -0.00560  -0.00560   1.89212
    A4        1.89867  -0.00076   0.00000  -0.00358  -0.00359   1.89508
    A5        1.98487   0.00193   0.00000   0.01252   0.01251   1.99739
    A6        1.89475  -0.00007   0.00000  -0.00037  -0.00038   1.89437
    A7        2.09443   0.00715   0.00000   0.02846   0.02844   2.12287
    A8        2.03583  -0.00381   0.00000  -0.01502  -0.01504   2.02079
    A9        2.15264  -0.00334   0.00000  -0.01318  -0.01320   2.13944
   A10        2.11641  -0.00616   0.00000  -0.03806  -0.03806   2.07835
   A11        2.10310   0.00556   0.00000   0.03431   0.03431   2.13740
   A12        2.06196   0.00060   0.00000   0.00367   0.00367   2.06563
    D1       -0.84858   0.00013   0.00000   0.00387   0.00392  -0.84466
    D2        2.31822   0.00003   0.00000  -0.00685  -0.00691   2.31131
    D3       -2.98026   0.00011   0.00000   0.00376   0.00382  -2.97644
    D4        0.18654   0.00001   0.00000  -0.00696  -0.00701   0.17953
    D5        1.18688  -0.00015   0.00000   0.00033   0.00038   1.18726
    D6       -1.92951  -0.00025   0.00000  -0.01039  -0.01045  -1.93996
    D7        3.13011   0.00037   0.00000   0.01483   0.01475  -3.13833
    D8       -0.07560   0.00033   0.00000   0.01347   0.01339  -0.06221
    D9        0.01465   0.00009   0.00000   0.00306   0.00315   0.01779
   D10        3.09212   0.00006   0.00000   0.00171   0.00179   3.09391
         Item               Value     Threshold  Converged?
 Maximum Force            0.021167     0.000450     NO 
 RMS     Force            0.005658     0.000300     NO 
 Maximum Displacement     0.059050     0.001800     NO 
 RMS     Displacement     0.018027     0.001200     NO 
 Predicted change in Energy=-1.029244D-03
 Lowest energy point so far.  Saving SCF results.
 GradGradGradGradGradGradGradGradGradGradGradGradGradGradGradGradGradGrad

 Leave Link  103 at Wed Mar 27 14:09:59 2024, MaxMem=  1073741824 cpu:               0.3 elap:               0.1
 (Enter /apps/versions/2023.01/rocky8/x86_64/generic/software/Gaussian/16.B.01/g16/l202.exe)
                          Input orientation:                          
 ---------------------------------------------------------------------
 Center     Atomic      Atomic             Coordinates (Angstroms)
 Number     Number       Type             X           Y           Z
 ---------------------------------------------------------------------
      1          6           0        2.938885    3.002438    3.570222
      2          1           0        2.465592    3.109972    4.549056
      3          1           0        3.456550    3.933990    3.316001
      4          1           0        3.681156    2.201600    3.650652
      5          6           0        1.875692    2.578107    2.565937
      6          8           0        1.101113    1.656827    2.800083
      7          7           0        1.855903    3.272967    1.395409
      8          1           0        1.169362    3.034872    0.695248
      9          1           0        2.466747    4.056226    1.220391
 ---------------------------------------------------------------------
                    Distance matrix (angstroms):
                    1          2          3          4          5
     1  C    0.000000
     2  H    1.092560   0.000000
     3  H    1.095625   1.783656   0.000000
     4  H    1.094887   1.763481   1.778655   0.000000
     5  C    1.522834   2.136264   2.213623   2.139641   0.000000
     6  O    2.404410   2.651856   3.316584   2.770716   1.226195
     7  N    2.444555   3.216174   2.586059   3.092814   1.361381
     8  H    3.376054   4.066656   3.592769   3.967098   2.051101
     9  H    2.618222   3.460550   2.320826   3.289467   2.084389
                    6          7          8          9
     6  O    0.000000
     7  N    2.270402   0.000000
     8  H    2.516744   1.009085   0.000000
     9  H    3.180802   1.008592   1.732671   0.000000
 Stoichiometry    C2H5NO
 Framework group  C1[X(C2H5NO)]
 Deg. of freedom    21
 Full point group                 C1      NOp   1
 RotChk:  IX=0 Diff= 3.79D-02
 Largest Abelian subgroup         C1      NOp   1
 Largest concise Abelian subgroup C1      NOp   1
                         Standard orientation:                         
 ---------------------------------------------------------------------
 Center     Atomic      Atomic             Coordinates (Angstroms)
 Number     Number       Type             X           Y           Z
 ---------------------------------------------------------------------
      1          6           0        1.361752   -0.346864   -0.000551
      2          1           0        1.912579    0.196300   -0.772075
      3          1           0        1.475225   -1.423744   -0.167422
      4          1           0        1.812849   -0.093939    0.964497
      5          6           0       -0.080194    0.142832   -0.004209
      6          8           0       -0.353400    1.338200   -0.001531
      7          7           0       -1.035089   -0.827430    0.007032
      8          1           0       -2.007661   -0.558482    0.002331
      9          1           0       -0.809519   -1.809542   -0.035744
 ---------------------------------------------------------------------
 Rotational constants (GHZ):          10.7686970           9.2297451           5.1282248
 Leave Link  202 at Wed Mar 27 14:09:59 2024, MaxMem=  1073741824 cpu:               0.0 elap:               0.0
 (Enter /apps/versions/2023.01/rocky8/x86_64/generic/software/Gaussian/16.B.01/g16/l301.exe)
 Standard basis: 6-31G(d) (6D, 7F)
 Ernie: Thresh=  0.10000D-02 Tol=  0.10000D-05 Strict=F.
 There are    70 symmetry adapted cartesian basis functions of A   symmetry.
 There are    70 symmetry adapted basis functions of A   symmetry.
    70 basis functions,   132 primitive gaussians,    70 cartesian basis functions
    16 alpha electrons       16 beta electrons
       nuclear repulsion energy       121.2829205603 Hartrees.
 IExCor=  402 DFT=T Ex+Corr=B3LYP ExCW=0 ScaHFX=  0.200000
 ScaDFX=  0.800000  0.720000  1.000000  0.810000 ScalE2=  1.000000  1.000000
 IRadAn=      5 IRanWt=     -1 IRanGd=            0 ICorTp=0 IEmpDi=  4
 NAtoms=    9 NActive=    9 NUniq=    9 SFac= 1.00D+00 NAtFMM=   60 NAOKFM=F Big=F
 Integral buffers will be    131072 words long.
 Raffenetti 2 integral format.
 Two-electron integral symmetry is turned on.
 Leave Link  301 at Wed Mar 27 14:09:59 2024, MaxMem=  1073741824 cpu:               0.6 elap:               0.2
 (Enter /apps/versions/2023.01/rocky8/x86_64/generic/software/Gaussian/16.B.01/g16/l302.exe)
 NPDir=0 NMtPBC=     1 NCelOv=     1 NCel=       1 NClECP=     1 NCelD=      1
         NCelK=      1 NCelE2=     1 NClLst=     1 CellRange=     0.0.
 One-electron integrals computed using PRISM.
 One-electron integral symmetry used in STVInt
 NBasis=    70 RedAO= T EigKep=  3.96D-03  NBF=    70
 NBsUse=    70 1.00D-06 EigRej= -1.00D+00 NBFU=    70
 Precomputing XC quadrature grid using
 IXCGrd= 4 IRadAn=           5 IRanWt=          -1 IRanGd=           0 AccXCQ= 0.00D+00.
 Generated NRdTot=       0 NPtTot=           0 NUsed=           0 NTot=          32
 NSgBfM=    70    70    70    70    70 MxSgAt=     9 MxSgA2=     9.
 Leave Link  302 at Wed Mar 27 14:10:00 2024, MaxMem=  1073741824 cpu:               1.5 elap:               0.7
 (Enter /apps/versions/2023.01/rocky8/x86_64/generic/software/Gaussian/16.B.01/g16/l303.exe)
 DipDrv:  MaxL=1.
 Leave Link  303 at Wed Mar 27 14:10:00 2024, MaxMem=  1073741824 cpu:               0.4 elap:               0.2
 (Enter /apps/versions/2023.01/rocky8/x86_64/generic/software/Gaussian/16.B.01/g16/l401.exe)
 Initial guess from the checkpoint file:  "098457434.chk"
 B after Tr=    -0.000000   -0.000000    0.000000
         Rot=    0.999876    0.000074   -0.000264   -0.015720 Ang=   1.80 deg.
 Guess basis will be translated and rotated to current coordinates.
 JPrj=2 DoOrth=T DoCkMO=T.
 Generating alternative initial guess.
 ExpMin= 1.61D-01 ExpMax= 5.48D+03 ExpMxC= 8.25D+02 IAcc=3 IRadAn=         5 AccDes= 0.00D+00
 Harris functional with IExCor=  402 and IRadAn=       5 diagonalized for initial guess.
 HarFok:  IExCor=  402 AccDes= 0.00D+00 IRadAn=         5 IDoV= 1 UseB2=F ITyADJ=14
 ICtDFT=  3500011 ScaDFX=  1.000000  1.000000  1.000000  1.000000
 FoFCou: FMM=F IPFlag=           0 FMFlag=      100000 FMFlg1=           0
         NFxFlg=           0 DoJE=T BraDBF=F KetDBF=T FulRan=T
         wScrn=  0.000000 ICntrl=       500 IOpCl=  0 I1Cent=   200000004 NGrid=           0
         NMat0=    1 NMatS0=      1 NMatT0=    0 NMatD0=    1 NMtDS0=    0 NMtDT0=    0
 Petite list used in FoFCou.
 Harris En= -209.249144290346    
 Leave Link  401 at Wed Mar 27 14:10:01 2024, MaxMem=  1073741824 cpu:               3.1 elap:               1.5
 (Enter /apps/versions/2023.01/rocky8/x86_64/generic/software/Gaussian/16.B.01/g16/l502.exe)
 Keep R1 ints in memory in canonical form, NReq=10237356.
 FoFCou: FMM=F IPFlag=           0 FMFlag=           0 FMFlg1=           0
         NFxFlg=           0 DoJE=F BraDBF=F KetDBF=F FulRan=T
         wScrn=  0.000000 ICntrl=       600 IOpCl=  0 I1Cent=           0 NGrid=           0
         NMat0=    1 NMatS0=   2485 NMatT0=    0 NMatD0=    1 NMtDS0=    0 NMtDT0=    0
 Symmetry not used in FoFCou.
 Two-electron integral symmetry not used.
 Closed shell SCF:
 Using DIIS extrapolation, IDIIS=  1040.
 NGot=  1073741824 LenX=  1070641648 LenY=  1070636307
 Requested convergence on RMS density matrix=1.00D-08 within 128 cycles.
 Requested convergence on MAX density matrix=1.00D-06.
 Requested convergence on             energy=1.00D-06.
 No special actions if energy rises.
 Integral accuracy reduced to 1.0D-05 until final iterations.

 Cycle   1  Pass 0  IDiag  1:
 E= -209.211483039317    
 DIIS: error= 1.43D-03 at cycle   1 NSaved=   1.
 NSaved= 1 IEnMin= 1 EnMin= -209.211483039317     IErMin= 1 ErrMin= 1.43D-03
 ErrMax= 1.43D-03  0.00D+00 EMaxC= 1.00D-01 BMatC= 4.14D-04 BMatP= 4.14D-04
 IDIUse=3 WtCom= 9.86D-01 WtEn= 1.43D-02
 Coeff-Com:  0.100D+01
 Coeff-En:   0.100D+01
 Coeff:      0.100D+01
 Gap=     1.696 Goal=   None    Shift=    0.000
 GapD=    1.696 DampG=2.000 DampE=1.000 DampFc=2.0000 IDamp=-1.
 RMSDP=5.53D-04 MaxDP=5.78D-03              OVMax= 8.09D-03

 Cycle   2  Pass 0  IDiag  1:
 E= -209.212002168890     Delta-E=       -0.000519129573 Rises=F Damp=F
 DIIS: error= 9.02D-04 at cycle   2 NSaved=   2.
 NSaved= 2 IEnMin= 2 EnMin= -209.212002168890     IErMin= 2 ErrMin= 9.02D-04
 ErrMax= 9.02D-04  0.00D+00 EMaxC= 1.00D-01 BMatC= 1.13D-04 BMatP= 4.14D-04
 IDIUse=3 WtCom= 9.91D-01 WtEn= 9.02D-03
 Coeff-Com:  0.269D+00 0.731D+00
 Coeff-En:   0.000D+00 0.100D+01
 Coeff:      0.267D+00 0.733D+00
 Gap=     0.275 Goal=   None    Shift=    0.000
 RMSDP=2.66D-04 MaxDP=5.28D-03 DE=-5.19D-04 OVMax= 6.44D-03

 Cycle   3  Pass 0  IDiag  1:
 E= -209.211965540657     Delta-E=        0.000036628233 Rises=F Damp=F
 DIIS: error= 1.22D-03 at cycle   3 NSaved=   3.
 NSaved= 3 IEnMin= 2 EnMin= -209.212002168890     IErMin= 2 ErrMin= 9.02D-04
 ErrMax= 1.22D-03  0.00D+00 EMaxC= 1.00D-01 BMatC= 1.57D-04 BMatP= 1.13D-04
 IDIUse=3 WtCom= 2.22D-01 WtEn= 7.78D-01
 Coeff-Com:  0.726D-02 0.541D+00 0.452D+00
 Coeff-En:   0.000D+00 0.572D+00 0.428D+00
 Coeff:      0.162D-02 0.565D+00 0.434D+00
 Gap=     0.278 Goal=   None    Shift=    0.000
 RMSDP=1.65D-04 MaxDP=3.06D-03 DE= 3.66D-05 OVMax= 4.50D-03

 Cycle   4  Pass 0  IDiag  1:
 E= -209.212083670087     Delta-E=       -0.000118129430 Rises=F Damp=F
 DIIS: error= 1.80D-04 at cycle   4 NSaved=   4.
 NSaved= 4 IEnMin= 4 EnMin= -209.212083670087     IErMin= 4 ErrMin= 1.80D-04
 ErrMax= 1.80D-04  0.00D+00 EMaxC= 1.00D-01 BMatC= 2.38D-06 BMatP= 1.13D-04
 IDIUse=3 WtCom= 9.98D-01 WtEn= 1.80D-03
 Coeff-Com: -0.125D-01 0.209D+00 0.188D+00 0.615D+00
 Coeff-En:   0.000D+00 0.000D+00 0.000D+00 0.100D+01
 Coeff:     -0.125D-01 0.209D+00 0.188D+00 0.616D+00
 Gap=     0.277 Goal=   None    Shift=    0.000
 RMSDP=2.39D-05 MaxDP=5.62D-04 DE=-1.18D-04 OVMax= 6.58D-04

 Cycle   5  Pass 0  IDiag  1:
 E= -209.212085381948     Delta-E=       -0.000001711861 Rises=F Damp=F
 DIIS: error= 5.83D-05 at cycle   5 NSaved=   5.
 NSaved= 5 IEnMin= 5 EnMin= -209.212085381948     IErMin= 5 ErrMin= 5.83D-05
 ErrMax= 5.83D-05  0.00D+00 EMaxC= 1.00D-01 BMatC= 4.95D-07 BMatP= 2.38D-06
 IDIUse=1 WtCom= 1.00D+00 WtEn= 0.00D+00
 Coeff-Com: -0.825D-02 0.765D-01 0.766D-01 0.349D+00 0.506D+00
 Coeff:     -0.825D-02 0.765D-01 0.766D-01 0.349D+00 0.506D+00
 Gap=     0.277 Goal=   None    Shift=    0.000
 RMSDP=7.75D-06 MaxDP=1.96D-04 DE=-1.71D-06 OVMax= 1.69D-04

 Initial convergence to 1.0D-05 achieved.  Increase integral accuracy.
 Cycle   6  Pass 1  IDiag  1:
 E= -209.212081073997     Delta-E=        0.000004307950 Rises=F Damp=F
 DIIS: error= 9.85D-06 at cycle   1 NSaved=   1.
 NSaved= 1 IEnMin= 1 EnMin= -209.212081073997     IErMin= 1 ErrMin= 9.85D-06
 ErrMax= 9.85D-06  0.00D+00 EMaxC= 1.00D-01 BMatC= 6.85D-09 BMatP= 6.85D-09
 IDIUse=1 WtCom= 1.00D+00 WtEn= 0.00D+00
 Coeff-Com:  0.100D+01
 Coeff:      0.100D+01
 Gap=     0.277 Goal=   None    Shift=    0.000
 RMSDP=7.75D-06 MaxDP=1.96D-04 DE= 4.31D-06 OVMax= 9.27D-05

 Cycle   7  Pass 1  IDiag  1:
 E= -209.212081064730     Delta-E=        0.000000009267 Rises=F Damp=F
 DIIS: error= 1.78D-05 at cycle   2 NSaved=   2.
 NSaved= 2 IEnMin= 1 EnMin= -209.212081073997     IErMin= 1 ErrMin= 9.85D-06
 ErrMax= 1.78D-05  0.00D+00 EMaxC= 1.00D-01 BMatC= 1.89D-08 BMatP= 6.85D-09
 IDIUse=1 WtCom= 1.00D+00 WtEn= 0.00D+00
 Coeff-Com:  0.632D+00 0.368D+00
 Coeff:      0.632D+00 0.368D+00
 Gap=     0.277 Goal=   None    Shift=    0.000
 RMSDP=2.09D-06 MaxDP=3.25D-05 DE= 9.27D-09 OVMax= 6.44D-05

 Cycle   8  Pass 1  IDiag  1:
 E= -209.212081080630     Delta-E=       -0.000000015900 Rises=F Damp=F
 DIIS: error= 2.48D-06 at cycle   3 NSaved=   3.
 NSaved= 3 IEnMin= 3 EnMin= -209.212081080630     IErMin= 3 ErrMin= 2.48D-06
 ErrMax= 2.48D-06  0.00D+00 EMaxC= 1.00D-01 BMatC= 7.10D-10 BMatP= 6.85D-09
 IDIUse=1 WtCom= 1.00D+00 WtEn= 0.00D+00
 Coeff-Com:  0.300D+00 0.205D+00 0.495D+00
 Coeff:      0.300D+00 0.205D+00 0.495D+00
 Gap=     0.277 Goal=   None    Shift=    0.000
 RMSDP=3.42D-07 MaxDP=6.34D-06 DE=-1.59D-08 OVMax= 7.43D-06

 Cycle   9  Pass 1  IDiag  1:
 E= -209.212081081124     Delta-E=       -0.000000000494 Rises=F Damp=F
 DIIS: error= 9.09D-07 at cycle   4 NSaved=   4.
 NSaved= 4 IEnMin= 4 EnMin= -209.212081081124     IErMin= 4 ErrMin= 9.09D-07
 ErrMax= 9.09D-07  0.00D+00 EMaxC= 1.00D-01 BMatC= 7.20D-11 BMatP= 7.10D-10
 IDIUse=1 WtCom= 1.00D+00 WtEn= 0.00D+00
 Coeff-Com:  0.643D-01 0.488D-01 0.270D+00 0.617D+00
 Coeff:      0.643D-01 0.488D-01 0.270D+00 0.617D+00
 Gap=     0.277 Goal=   None    Shift=    0.000
 RMSDP=1.20D-07 MaxDP=1.84D-06 DE=-4.94D-10 OVMax= 2.64D-06

 Cycle  10  Pass 1  IDiag  1:
 E= -209.212081081180     Delta-E=       -0.000000000055 Rises=F Damp=F
 DIIS: error= 2.06D-07 at cycle   5 NSaved=   5.
 NSaved= 5 IEnMin= 5 EnMin= -209.212081081180     IErMin= 5 ErrMin= 2.06D-07
 ErrMax= 2.06D-07  0.00D+00 EMaxC= 1.00D-01 BMatC= 5.52D-12 BMatP= 7.20D-11
 IDIUse=1 WtCom= 1.00D+00 WtEn= 0.00D+00
 Coeff-Com: -0.797D-03 0.199D-02 0.770D-01 0.300D+00 0.622D+00
 Coeff:     -0.797D-03 0.199D-02 0.770D-01 0.300D+00 0.622D+00
 Gap=     0.277 Goal=   None    Shift=    0.000
 RMSDP=3.74D-08 MaxDP=5.81D-07 DE=-5.52D-11 OVMax= 6.16D-07

 Cycle  11  Pass 1  IDiag  1:
 E= -209.212081081183     Delta-E=       -0.000000000003 Rises=F Damp=F
 DIIS: error= 5.46D-08 at cycle   6 NSaved=   6.
 NSaved= 6 IEnMin= 6 EnMin= -209.212081081183     IErMin= 6 ErrMin= 5.46D-08
 ErrMax= 5.46D-08  0.00D+00 EMaxC= 1.00D-01 BMatC= 3.27D-13 BMatP= 5.52D-12
 IDIUse=1 WtCom= 1.00D+00 WtEn= 0.00D+00
 Coeff-Com: -0.537D-02-0.223D-02 0.103D-01 0.854D-01 0.254D+00 0.658D+00
 Coeff:     -0.537D-02-0.223D-02 0.103D-01 0.854D-01 0.254D+00 0.658D+00
 Gap=     0.277 Goal=   None    Shift=    0.000
 RMSDP=8.93D-09 MaxDP=1.13D-07 DE=-3.41D-12 OVMax= 1.52D-07

 SCF Done:  E(RB3LYP) =  -209.212081081     A.U. after   11 cycles
            NFock= 11  Conv=0.89D-08     -V/T= 2.0093
 KE= 2.072872184674D+02 PE=-7.312982394707D+02 EE= 1.935160193618D+02
 Leave Link  502 at Wed Mar 27 14:10:08 2024, MaxMem=  1073741824 cpu:              13.2 elap:               6.7
 (Enter /apps/versions/2023.01/rocky8/x86_64/generic/software/Gaussian/16.B.01/g16/l701.exe)
 ... and contract with generalized density number  0.
 Compute integral first derivatives.
 Leave Link  701 at Wed Mar 27 14:10:09 2024, MaxMem=  1073741824 cpu:               1.1 elap:               0.5
 (Enter /apps/versions/2023.01/rocky8/x86_64/generic/software/Gaussian/16.B.01/g16/l702.exe)
 L702 exits ... SP integral derivatives will be done elsewhere.
 Leave Link  702 at Wed Mar 27 14:10:09 2024, MaxMem=  1073741824 cpu:               0.3 elap:               0.1
 (Enter /apps/versions/2023.01/rocky8/x86_64/generic/software/Gaussian/16.B.01/g16/l703.exe)
 Integral derivatives from FoFJK, PRISM(SPDF).
 Compute integral first derivatives, UseDBF=F ICtDFT=           0.
 Calling FoFJK, ICntrl=      2127 FMM=F ISym2X=0 I1Cent= 0 IOpClX= 0 NMat=1 NMatS=1 NMatT=0.
 FoFJK:  IHMeth= 1 ICntrl=    2127 DoSepK=F KAlg= 0 I1Cent=           0 FoldK=F
 IRaf=         0 NMat=       1 IRICut=       1 DoRegI=T DoRafI=F ISym2E= 0 IDoP0=0 IntGTp=1.
 FoFCou: FMM=F IPFlag=           0 FMFlag=      100000 FMFlg1=         800
         NFxFlg=           0 DoJE=F BraDBF=F KetDBF=F FulRan=T
         wScrn=  0.000000 ICntrl=      2127 IOpCl=  0 I1Cent=           0 NGrid=           0
         NMat0=    1 NMatS0=      1 NMatT0=    0 NMatD0=    1 NMtDS0=    0 NMtDT0=    0
 Symmetry not used in FoFCou.
 Leave Link  703 at Wed Mar 27 14:10:11 2024, MaxMem=  1073741824 cpu:               4.6 elap:               2.3
 (Enter /apps/versions/2023.01/rocky8/x86_64/generic/software/Gaussian/16.B.01/g16/l716.exe)
 Dipole        =-5.10125862D-03-1.48661083D+00-1.71681989D-02
 ***** Axes restored to original set *****
 -------------------------------------------------------------------
 Center     Atomic                   Forces (Hartrees/Bohr)
 Number     Number              X              Y              Z
 -------------------------------------------------------------------
      1        6           0.000822869    0.000536949   -0.000542897
      2        1          -0.000000633    0.000071496    0.000378305
      3        1          -0.000556568   -0.000401686   -0.000324466
      4        1           0.000207000   -0.000047170    0.000246504
      5        6          -0.004900497   -0.007539455    0.006435233
      6        8           0.003579351    0.004431375   -0.002309636
      7        7           0.002288806    0.004488672   -0.003775479
      8        1          -0.001115846   -0.001045405    0.000046104
      9        1          -0.000324481   -0.000494775   -0.000153669
 -------------------------------------------------------------------
 Cartesian Forces:  Max     0.007539455 RMS     0.002752098
 Leave Link  716 at Wed Mar 27 14:10:12 2024, MaxMem=  1073741824 cpu:               0.3 elap:               0.2
 (Enter /apps/versions/2023.01/rocky8/x86_64/generic/software/Gaussian/16.B.01/g16/l103.exe)

 GradGradGradGradGradGradGradGradGradGradGradGradGradGradGradGradGradGrad
 Berny optimization.
 Using GEDIIS/GDIIS optimizer.
 FormGI is forming the generalized inverse of G from B-inverse, IUseBI=4.
 Internal  Forces:  Max     0.006031476 RMS     0.001546615
 Search for a local minimum.
 Step number   2 out of a maximum of  100
 All quantities printed in internal units (Hartrees-Bohrs-Radians)
 RMS Force = .15466D-02 SwitMx=.10000D-02 MixMth= 1
 Mixed Optimization -- RFO/linear search
 Update second derivatives using D2CorX and points    1    2
 DE= -1.22D-03 DEPred=-1.03D-03 R= 1.18D+00
 TightC=F SS=  1.41D+00  RLast= 8.31D-02 DXNew= 5.0454D-01 2.4921D-01
 Trust test= 1.18D+00 RLast= 8.31D-02 DXMaxT set to 3.00D-01
 ITU=  1  0
 Use linear search instead of GDIIS.
     Eigenvalues ---    0.00528   0.01283   0.02362   0.02380   0.06779
     Eigenvalues ---    0.07588   0.14456   0.16000   0.16000   0.16000
     Eigenvalues ---    0.16519   0.23713   0.25000   0.30567   0.34219
     Eigenvalues ---    0.34516   0.34693   0.45856   0.47333   0.50949
     Eigenvalues ---    0.80706
 RFO step:  Lambda=-1.22912770D-04 EMin= 5.28213593D-03
 Quartic linear search produced a step of  0.22515.
 Iteration  1 RMS(Cart)=  0.00702569 RMS(Int)=  0.00008532
 Iteration  2 RMS(Cart)=  0.00009163 RMS(Int)=  0.00002938
 Iteration  3 RMS(Cart)=  0.00000000 RMS(Int)=  0.00002938
 ITry= 1 IFail=0 DXMaxC= 1.93D-02 DCOld= 1.00D+10 DXMaxT= 3.00D-01 DXLimC= 3.00D+00 Rises=F
 Variable       Old X    -DE/DX   Delta X   Delta X   Delta X     New X
                                 (Linear)    (Quad)   (Total)
    R1        2.06464   0.00035   0.00003   0.00121   0.00123   2.06587
    R2        2.07043  -0.00053   0.00138  -0.00291  -0.00153   2.06890
    R3        2.06904   0.00019  -0.00014   0.00080   0.00065   2.06969
    R4        2.87774   0.00021   0.00208  -0.00070   0.00138   2.87912
    R5        2.31717  -0.00603  -0.00544  -0.00444  -0.00987   2.30730
    R6        2.57264   0.00483   0.00526   0.00681   0.01207   2.58471
    R7        1.90689   0.00097  -0.00689   0.00788   0.00099   1.90788
    R8        1.90596  -0.00055   0.00054  -0.00186  -0.00133   1.90464
    A1        1.90591   0.00017  -0.00074   0.00102   0.00028   1.90619
    A2        1.87534  -0.00021  -0.00006  -0.00026  -0.00033   1.87502
    A3        1.89212   0.00035  -0.00126   0.00375   0.00249   1.89461
    A4        1.89508   0.00016  -0.00081   0.00164   0.00083   1.89591
    A5        1.99739  -0.00095   0.00282  -0.01004  -0.00722   1.99017
    A6        1.89437   0.00051  -0.00009   0.00439   0.00430   1.89867
    A7        2.12287   0.00175   0.00640   0.00367   0.01001   2.13287
    A8        2.02079  -0.00091  -0.00339  -0.00200  -0.00546   2.01533
    A9        2.13944  -0.00084  -0.00297  -0.00198  -0.00502   2.13442
   A10        2.07835  -0.00164  -0.00857  -0.00587  -0.01444   2.06391
   A11        2.13740   0.00102   0.00772   0.00191   0.00964   2.14704
   A12        2.06563   0.00061   0.00083   0.00410   0.00492   2.07056
    D1       -0.84466  -0.00026   0.00088  -0.01841  -0.01756  -0.86223
    D2        2.31131  -0.00004  -0.00156   0.00492   0.00338   2.31469
    D3       -2.97644  -0.00010   0.00086  -0.01572  -0.01489  -2.99133
    D4        0.17953   0.00012  -0.00158   0.00761   0.00606   0.18559
    D5        1.18726  -0.00005   0.00009  -0.01433  -0.01427   1.17299
    D6       -1.93996   0.00017  -0.00235   0.00900   0.00668  -1.93327
    D7       -3.13833  -0.00005   0.00332  -0.01111  -0.00775   3.13711
    D8       -0.06221  -0.00000   0.00301  -0.00846  -0.00540  -0.06761
    D9        0.01779   0.00015   0.00071   0.01241   0.01308   0.03088
   D10        3.09391   0.00020   0.00040   0.01507   0.01543   3.10934
         Item               Value     Threshold  Converged?
 Maximum Force            0.006031     0.000450     NO 
 RMS     Force            0.001547     0.000300     NO 
 Maximum Displacement     0.019319     0.001800     NO 
 RMS     Displacement     0.007026     0.001200     NO 
 Predicted change in Energy=-1.051284D-04
 Lowest energy point so far.  Saving SCF results.
 GradGradGradGradGradGradGradGradGradGradGradGradGradGradGradGradGradGrad

 Leave Link  103 at Wed Mar 27 14:10:12 2024, MaxMem=  1073741824 cpu:               0.1 elap:               0.0
 (Enter /apps/versions/2023.01/rocky8/x86_64/generic/software/Gaussian/16.B.01/g16/l202.exe)
                          Input orientation:                          
 ---------------------------------------------------------------------
 Center     Atomic      Atomic             Coordinates (Angstroms)
 Number     Number       Type             X           Y           Z
 ---------------------------------------------------------------------
      1          6           0        2.938375    3.000842    3.572870
      2          1           0        2.470519    3.112323    4.554602
      3          1           0        3.452540    3.931255    3.310982
      4          1           0        3.682007    2.200742    3.652783
      5          6           0        1.869987    2.579472    2.571752
      6          8           0        1.102022    1.655661    2.789860
      7          7           0        1.857972    3.277564    1.395610
      8          1           0        1.169266    3.030215    0.700045
      9          1           0        2.468310    4.058927    1.214496
 ---------------------------------------------------------------------
                    Distance matrix (angstroms):
                    1          2          3          4          5
     1  C    0.000000
     2  H    1.093213   0.000000
     3  H    1.094815   1.783705   0.000000
     4  H    1.095233   1.764075   1.778809   0.000000
     5  C    1.523562   2.139220   2.208677   2.143708   0.000000
     6  O    2.407240   2.666264   3.312828   2.774540   1.220970
     7  N    2.446284   3.222072   2.576550   3.095397   1.367767
     8  H    3.373978   4.069104   3.583602   3.964915   2.048772
     9  H    2.627248   3.471652   2.319540   3.297144   2.094975
                    6          7          8          9
     6  O    0.000000
     7  N    2.268472   0.000000
     8  H    2.502248   1.009608   0.000000
     9  H    3.181855   1.007890   1.735057   0.000000
 Stoichiometry    C2H5NO
 Framework group  C1[X(C2H5NO)]
 Deg. of freedom    21
 Full point group                 C1      NOp   1
 RotChk:  IX=0 Diff= 5.82D-03
 Largest Abelian subgroup         C1      NOp   1
 Largest concise Abelian subgroup C1      NOp   1
                         Standard orientation:                         
 ---------------------------------------------------------------------
 Center     Atomic      Atomic             Coordinates (Angstroms)
 Number     Number       Type             X           Y           Z
 ---------------------------------------------------------------------
      1          6           0        1.365635   -0.339334    0.000527
      2          1           0        1.920479    0.198992   -0.772434
      3          1           0        1.474312   -1.416544   -0.162040
      4          1           0        1.816032   -0.083997    0.965659
      5          6           0       -0.078070    0.147307   -0.011254
      6          8           0       -0.364844    1.334060    0.000795
      7          7           0       -1.029957   -0.834706    0.007401
      8          1           0       -2.001183   -0.558988    0.004512
      9          1           0       -0.806578   -1.816838   -0.029494
 ---------------------------------------------------------------------
 Rotational constants (GHZ):          10.7798423           9.2097366           5.1247732
 Leave Link  202 at Wed Mar 27 14:10:12 2024, MaxMem=  1073741824 cpu:               0.0 elap:               0.0
 (Enter /apps/versions/2023.01/rocky8/x86_64/generic/software/Gaussian/16.B.01/g16/l301.exe)
 Standard basis: 6-31G(d) (6D, 7F)
 Ernie: Thresh=  0.10000D-02 Tol=  0.10000D-05 Strict=F.
 There are    70 symmetry adapted cartesian basis functions of A   symmetry.
 There are    70 symmetry adapted basis functions of A   symmetry.
    70 basis functions,   132 primitive gaussians,    70 cartesian basis functions
    16 alpha electrons       16 beta electrons
       nuclear repulsion energy       121.2718604312 Hartrees.
 IExCor=  402 DFT=T Ex+Corr=B3LYP ExCW=0 ScaHFX=  0.200000
 ScaDFX=  0.800000  0.720000  1.000000  0.810000 ScalE2=  1.000000  1.000000
 IRadAn=      5 IRanWt=     -1 IRanGd=            0 ICorTp=0 IEmpDi=  4
 NAtoms=    9 NActive=    9 NUniq=    9 SFac= 1.00D+00 NAtFMM=   60 NAOKFM=F Big=F
 Integral buffers will be    131072 words long.
 Raffenetti 2 integral format.
 Two-electron integral symmetry is turned on.
 Leave Link  301 at Wed Mar 27 14:10:12 2024, MaxMem=  1073741824 cpu:               0.4 elap:               0.2
 (Enter /apps/versions/2023.01/rocky8/x86_64/generic/software/Gaussian/16.B.01/g16/l302.exe)
 NPDir=0 NMtPBC=     1 NCelOv=     1 NCel=       1 NClECP=     1 NCelD=      1
         NCelK=      1 NCelE2=     1 NClLst=     1 CellRange=     0.0.
 One-electron integrals computed using PRISM.
 One-electron integral symmetry used in STVInt
 NBasis=    70 RedAO= T EigKep=  3.96D-03  NBF=    70
 NBsUse=    70 1.00D-06 EigRej= -1.00D+00 NBFU=    70
 Precomputing XC quadrature grid using
 IXCGrd= 4 IRadAn=           5 IRanWt=          -1 IRanGd=           0 AccXCQ= 0.00D+00.
 Generated NRdTot=       0 NPtTot=           0 NUsed=           0 NTot=          32
 NSgBfM=    70    70    70    70    70 MxSgAt=     9 MxSgA2=     9.
 Leave Link  302 at Wed Mar 27 14:10:13 2024, MaxMem=  1073741824 cpu:               1.5 elap:               0.7
 (Enter /apps/versions/2023.01/rocky8/x86_64/generic/software/Gaussian/16.B.01/g16/l303.exe)
 DipDrv:  MaxL=1.
 Leave Link  303 at Wed Mar 27 14:10:13 2024, MaxMem=  1073741824 cpu:               0.4 elap:               0.2
 (Enter /apps/versions/2023.01/rocky8/x86_64/generic/software/Gaussian/16.B.01/g16/l401.exe)
 Initial guess from the checkpoint file:  "098457434.chk"
 B after Tr=     0.000000    0.000000   -0.000000
         Rot=    0.999996    0.000221    0.000079   -0.002786 Ang=   0.32 deg.
 Guess basis will be translated and rotated to current coordinates.
 JPrj=2 DoOrth=T DoCkMO=T.
 Leave Link  401 at Wed Mar 27 14:10:14 2024, MaxMem=  1073741824 cpu:               1.1 elap:               0.5
 (Enter /apps/versions/2023.01/rocky8/x86_64/generic/software/Gaussian/16.B.01/g16/l502.exe)
 Keep R1 ints in memory in canonical form, NReq=10237356.
 FoFCou: FMM=F IPFlag=           0 FMFlag=           0 FMFlg1=           0
         NFxFlg=           0 DoJE=F BraDBF=F KetDBF=F FulRan=T
         wScrn=  0.000000 ICntrl=       600 IOpCl=  0 I1Cent=           0 NGrid=           0
         NMat0=    1 NMatS0=   2485 NMatT0=    0 NMatD0=    1 NMtDS0=    0 NMtDT0=    0
 Symmetry not used in FoFCou.
 Two-electron integral symmetry not used.
 Closed shell SCF:
 Using DIIS extrapolation, IDIIS=  1040.
 NGot=  1073741824 LenX=  1070641648 LenY=  1070636307
 Requested convergence on RMS density matrix=1.00D-08 within 128 cycles.
 Requested convergence on MAX density matrix=1.00D-06.
 Requested convergence on             energy=1.00D-06.
 No special actions if energy rises.

 Cycle   1  Pass 1  IDiag  1:
 E= -209.212016713128    
 DIIS: error= 5.98D-04 at cycle   1 NSaved=   1.
 NSaved= 1 IEnMin= 1 EnMin= -209.212016713128     IErMin= 1 ErrMin= 5.98D-04
 ErrMax= 5.98D-04  0.00D+00 EMaxC= 1.00D-01 BMatC= 9.36D-05 BMatP= 9.36D-05
 IDIUse=3 WtCom= 9.94D-01 WtEn= 5.98D-03
 Coeff-Com:  0.100D+01
 Coeff-En:   0.100D+01
 Coeff:      0.100D+01
 Gap=     1.700 Goal=   None    Shift=    0.000
 RMSDP=2.60D-04 MaxDP=2.32D-03              OVMax= 3.93D-03

 Cycle   2  Pass 1  IDiag  1:
 E= -209.212156040962     Delta-E=       -0.000139327834 Rises=F Damp=F
 DIIS: error= 3.55D-04 at cycle   2 NSaved=   2.
 NSaved= 2 IEnMin= 2 EnMin= -209.212156040962     IErMin= 2 ErrMin= 3.55D-04
 ErrMax= 3.55D-04  0.00D+00 EMaxC= 1.00D-01 BMatC= 2.01D-05 BMatP= 9.36D-05
 IDIUse=3 WtCom= 9.96D-01 WtEn= 3.55D-03
 Coeff-Com:  0.211D+00 0.789D+00
 Coeff-En:   0.000D+00 0.100D+01
 Coeff:      0.211D+00 0.789D+00
 Gap=     0.278 Goal=   None    Shift=    0.000
 RMSDP=1.24D-04 MaxDP=2.47D-03 DE=-1.39D-04 OVMax= 3.81D-03

 Cycle   3  Pass 1  IDiag  1:
 E= -209.212139288679     Delta-E=        0.000016752283 Rises=F Damp=F
 DIIS: error= 6.56D-04 at cycle   3 NSaved=   3.
 NSaved= 3 IEnMin= 2 EnMin= -209.212156040962     IErMin= 2 ErrMin= 3.55D-04
 ErrMax= 6.56D-04  0.00D+00 EMaxC= 1.00D-01 BMatC= 4.13D-05 BMatP= 2.01D-05
 IDIUse=3 WtCom= 2.81D-01 WtEn= 7.19D-01
 Coeff-Com: -0.316D-01 0.603D+00 0.428D+00
 Coeff-En:   0.000D+00 0.640D+00 0.360D+00
 Coeff:     -0.887D-02 0.630D+00 0.379D+00
 Gap=     0.279 Goal=   None    Shift=    0.000
 RMSDP=7.69D-05 MaxDP=1.38D-03 DE= 1.68D-05 OVMax= 2.23D-03

 Cycle   4  Pass 1  IDiag  1:
 E= -209.212171171961     Delta-E=       -0.000031883282 Rises=F Damp=F
 DIIS: error= 4.05D-05 at cycle   4 NSaved=   4.
 NSaved= 4 IEnMin= 4 EnMin= -209.212171171961     IErMin= 4 ErrMin= 4.05D-05
 ErrMax= 4.05D-05  0.00D+00 EMaxC= 1.00D-01 BMatC= 2.59D-07 BMatP= 2.01D-05
 IDIUse=1 WtCom= 1.00D+00 WtEn= 0.00D+00
 Coeff-Com: -0.152D-01 0.153D+00 0.546D-01 0.807D+00
 Coeff:     -0.152D-01 0.153D+00 0.546D-01 0.807D+00
 Gap=     0.279 Goal=   None    Shift=    0.000
 RMSDP=6.26D-06 MaxDP=9.47D-05 DE=-3.19D-05 OVMax= 1.55D-04

 Cycle   5  Pass 1  IDiag  1:
 E= -209.212171358155     Delta-E=       -0.000000186194 Rises=F Damp=F
 DIIS: error= 8.84D-06 at cycle   5 NSaved=   5.
 NSaved= 5 IEnMin= 5 EnMin= -209.212171358155     IErMin= 5 ErrMin= 8.84D-06
 ErrMax= 8.84D-06  0.00D+00 EMaxC= 1.00D-01 BMatC= 1.04D-08 BMatP= 2.59D-07
 IDIUse=1 WtCom= 1.00D+00 WtEn= 0.00D+00
 Coeff-Com: -0.574D-02 0.528D-01 0.146D-01 0.364D+00 0.575D+00
 Coeff:     -0.574D-02 0.528D-01 0.146D-01 0.364D+00 0.575D+00
 Gap=     0.279 Goal=   None    Shift=    0.000
 RMSDP=1.50D-06 MaxDP=3.43D-05 DE=-1.86D-07 OVMax= 3.84D-05

 Cycle   6  Pass 1  IDiag  1:
 E= -209.212171365993     Delta-E=       -0.000000007838 Rises=F Damp=F
 DIIS: error= 3.46D-06 at cycle   6 NSaved=   6.
 NSaved= 6 IEnMin= 6 EnMin= -209.212171365993     IErMin= 6 ErrMin= 3.46D-06
 ErrMax= 3.46D-06  0.00D+00 EMaxC= 1.00D-01 BMatC= 1.51D-09 BMatP= 1.04D-08
 IDIUse=1 WtCom= 1.00D+00 WtEn= 0.00D+00
 Coeff-Com: -0.825D-04-0.271D-02-0.349D-02 0.303D-01 0.290D+00 0.686D+00
 Coeff:     -0.825D-04-0.271D-02-0.349D-02 0.303D-01 0.290D+00 0.686D+00
 Gap=     0.279 Goal=   None    Shift=    0.000
 RMSDP=4.91D-07 MaxDP=9.33D-06 DE=-7.84D-09 OVMax= 1.04D-05

 Cycle   7  Pass 1  IDiag  1:
 E= -209.212171367286     Delta-E=       -0.000000001293 Rises=F Damp=F
 DIIS: error= 5.86D-07 at cycle   7 NSaved=   7.
 NSaved= 7 IEnMin= 7 EnMin= -209.212171367286     IErMin= 7 ErrMin= 5.86D-07
 ErrMax= 5.86D-07  0.00D+00 EMaxC= 1.00D-01 BMatC= 4.10D-11 BMatP= 1.51D-09
 IDIUse=1 WtCom= 1.00D+00 WtEn= 0.00D+00
 Coeff-Com:  0.130D-03-0.238D-02-0.194D-02-0.558D-03 0.812D-01 0.230D+00
 Coeff-Com:  0.694D+00
 Coeff:      0.130D-03-0.238D-02-0.194D-02-0.558D-03 0.812D-01 0.230D+00
 Coeff:      0.694D+00
 Gap=     0.279 Goal=   None    Shift=    0.000
 RMSDP=1.26D-07 MaxDP=1.22D-06 DE=-1.29D-09 OVMax= 2.06D-06

 Cycle   8  Pass 1  IDiag  1:
 E= -209.212171367325     Delta-E=       -0.000000000038 Rises=F Damp=F
 DIIS: error= 1.44D-07 at cycle   8 NSaved=   8.
 NSaved= 8 IEnMin= 8 EnMin= -209.212171367325     IErMin= 8 ErrMin= 1.44D-07
 ErrMax= 1.44D-07  0.00D+00 EMaxC= 1.00D-01 BMatC= 3.02D-12 BMatP= 4.10D-11
 IDIUse=1 WtCom= 1.00D+00 WtEn= 0.00D+00
 Coeff-Com:  0.607D-04-0.720D-03-0.568D-03-0.235D-02 0.936D-02 0.346D-01
 Coeff-Com:  0.241D+00 0.718D+00
 Coeff:      0.607D-04-0.720D-03-0.568D-03-0.235D-02 0.936D-02 0.346D-01
 Coeff:      0.241D+00 0.718D+00
 Gap=     0.279 Goal=   None    Shift=    0.000
 RMSDP=3.13D-08 MaxDP=3.50D-07 DE=-3.84D-11 OVMax= 7.52D-07

 Cycle   9  Pass 1  IDiag  1:
 E= -209.212171367327     Delta-E=       -0.000000000003 Rises=F Damp=F
 DIIS: error= 3.77D-08 at cycle   9 NSaved=   9.
 NSaved= 9 IEnMin= 9 EnMin= -209.212171367327     IErMin= 9 ErrMin= 3.77D-08
 ErrMax= 3.77D-08  0.00D+00 EMaxC= 1.00D-01 BMatC= 2.50D-13 BMatP= 3.02D-12
 IDIUse=1 WtCom= 1.00D+00 WtEn= 0.00D+00
 Coeff-Com:  0.850D-05-0.184D-04-0.544D-05-0.867D-03-0.508D-02-0.115D-01
 Coeff-Com:  0.143D-01 0.262D+00 0.741D+00
 Coeff:      0.850D-05-0.184D-04-0.544D-05-0.867D-03-0.508D-02-0.115D-01
 Coeff:      0.143D-01 0.262D+00 0.741D+00
 Gap=     0.279 Goal=   None    Shift=    0.000
 RMSDP=1.05D-08 MaxDP=1.07D-07 DE=-2.73D-12 OVMax= 3.28D-07

 Cycle  10  Pass 1  IDiag  1:
 E= -209.212171367328     Delta-E=       -0.000000000001 Rises=F Damp=F
 DIIS: error= 9.10D-09 at cycle  10 NSaved=  10.
 NSaved=10 IEnMin=10 EnMin= -209.212171367328     IErMin=10 ErrMin= 9.10D-09
 ErrMax= 9.10D-09  0.00D+00 EMaxC= 1.00D-01 BMatC= 1.18D-14 BMatP= 2.50D-13
 IDIUse=1 WtCom= 1.00D+00 WtEn= 0.00D+00
 Coeff-Com: -0.928D-06 0.328D-04 0.354D-04-0.116D-03-0.178D-02-0.468D-02
 Coeff-Com: -0.837D-02 0.310D-01 0.204D+00 0.780D+00
 Coeff:     -0.928D-06 0.328D-04 0.354D-04-0.116D-03-0.178D-02-0.468D-02
 Coeff:     -0.837D-02 0.310D-01 0.204D+00 0.780D+00
 Gap=     0.279 Goal=   None    Shift=    0.000
 RMSDP=2.22D-09 MaxDP=2.87D-08 DE=-6.82D-13 OVMax= 6.75D-08

 SCF Done:  E(RB3LYP) =  -209.212171367     A.U. after   10 cycles
            NFock= 10  Conv=0.22D-08     -V/T= 2.0093
 KE= 2.072901687978D+02 PE=-7.312740751519D+02 EE= 1.934998745556D+02
 Leave Link  502 at Wed Mar 27 14:10:21 2024, MaxMem=  1073741824 cpu:              14.1 elap:               7.0
 (Enter /apps/versions/2023.01/rocky8/x86_64/generic/software/Gaussian/16.B.01/g16/l701.exe)
 ... and contract with generalized density number  0.
 Compute integral first derivatives.
 Leave Link  701 at Wed Mar 27 14:10:21 2024, MaxMem=  1073741824 cpu:               1.1 elap:               0.5
 (Enter /apps/versions/2023.01/rocky8/x86_64/generic/software/Gaussian/16.B.01/g16/l702.exe)
 L702 exits ... SP integral derivatives will be done elsewhere.
 Leave Link  702 at Wed Mar 27 14:10:21 2024, MaxMem=  1073741824 cpu:               0.3 elap:               0.1
 (Enter /apps/versions/2023.01/rocky8/x86_64/generic/software/Gaussian/16.B.01/g16/l703.exe)
 Integral derivatives from FoFJK, PRISM(SPDF).
 Compute integral first derivatives, UseDBF=F ICtDFT=           0.
 Calling FoFJK, ICntrl=      2127 FMM=F ISym2X=0 I1Cent= 0 IOpClX= 0 NMat=1 NMatS=1 NMatT=0.
 FoFJK:  IHMeth= 1 ICntrl=    2127 DoSepK=F KAlg= 0 I1Cent=           0 FoldK=F
 IRaf=         0 NMat=       1 IRICut=       1 DoRegI=T DoRafI=F ISym2E= 0 IDoP0=0 IntGTp=1.
 FoFCou: FMM=F IPFlag=           0 FMFlag=      100000 FMFlg1=         800
         NFxFlg=           0 DoJE=F BraDBF=F KetDBF=F FulRan=T
         wScrn=  0.000000 ICntrl=      2127 IOpCl=  0 I1Cent=           0 NGrid=           0
         NMat0=    1 NMatS0=      1 NMatT0=    0 NMatD0=    1 NMtDS0=    0 NMtDT0=    0
 Symmetry not used in FoFCou.
 Leave Link  703 at Wed Mar 27 14:10:24 2024, MaxMem=  1073741824 cpu:               5.5 elap:               2.7
 (Enter /apps/versions/2023.01/rocky8/x86_64/generic/software/Gaussian/16.B.01/g16/l716.exe)
 Dipole        = 1.61313081D-02-1.46403208D+00-1.81035498D-02
 ***** Axes restored to original set *****
 -------------------------------------------------------------------
 Center     Atomic                   Forces (Hartrees/Bohr)
 Number     Number              X              Y              Z
 -------------------------------------------------------------------
      1        6          -0.000363642    0.000571551    0.000183877
      2        1           0.000166716    0.000061844    0.000133691
      3        1          -0.000196050   -0.000045773   -0.000035167
      4        1          -0.000201665   -0.000025478   -0.000083014
      5        6           0.002121633   -0.001486708   -0.000303285
      6        8          -0.001183641    0.000022326    0.000405879
      7        7           0.000179292    0.001171450   -0.000154173
      8        1          -0.000436630   -0.000231924   -0.000308028
      9        1          -0.000086012   -0.000037287    0.000160221
 -------------------------------------------------------------------
 Cartesian Forces:  Max     0.002121633 RMS     0.000632573
 Leave Link  716 at Wed Mar 27 14:10:24 2024, MaxMem=  1073741824 cpu:               0.3 elap:               0.1
 (Enter /apps/versions/2023.01/rocky8/x86_64/generic/software/Gaussian/16.B.01/g16/l103.exe)

 GradGradGradGradGradGradGradGradGradGradGradGradGradGradGradGradGradGrad
 Berny optimization.
 Using GEDIIS/GDIIS optimizer.
 FormGI is forming the generalized inverse of G from B-inverse, IUseBI=4.
 Internal  Forces:  Max     0.000800150 RMS     0.000333443
 Search for a local minimum.
 Step number   3 out of a maximum of  100
 All quantities printed in internal units (Hartrees-Bohrs-Radians)
 RMS Force = .33344D-03 SwitMx=.10000D-02 MixMth= 2
 Mixed Optimization -- En-DIIS/RFO-DIIS
 Update second derivatives using D2CorX and points    1    2    3
 DE= -9.03D-05 DEPred=-1.05D-04 R= 8.59D-01
 TightC=F SS=  1.41D+00  RLast= 4.62D-02 DXNew= 5.0454D-01 1.3863D-01
 Trust test= 8.59D-01 RLast= 4.62D-02 DXMaxT set to 3.00D-01
 ITU=  1  1  0
 Use linear search instead of GDIIS.
     Eigenvalues ---    0.00529   0.01616   0.02373   0.02401   0.06828
     Eigenvalues ---    0.07544   0.13028   0.16000   0.16000   0.16212
     Eigenvalues ---    0.16585   0.22582   0.25030   0.30612   0.34237
     Eigenvalues ---    0.34506   0.34670   0.45760   0.47183   0.48050
     Eigenvalues ---    0.83856
 RFO step:  Lambda=-7.99187905D-05 EMin= 5.28779284D-03
 Quartic linear search produced a step of -0.11828.
 Iteration  1 RMS(Cart)=  0.00867455 RMS(Int)=  0.00013979
 Iteration  2 RMS(Cart)=  0.00015516 RMS(Int)=  0.00009001
 Iteration  3 RMS(Cart)=  0.00000001 RMS(Int)=  0.00009001
 ITry= 1 IFail=0 DXMaxC= 2.37D-02 DCOld= 1.00D+10 DXMaxT= 3.00D-01 DXLimC= 3.00D+00 Rises=F
 Variable       Old X    -DE/DX   Delta X   Delta X   Delta X     New X
                                 (Linear)    (Quad)   (Total)
    R1        2.06587   0.00005  -0.00015   0.00069   0.00054   2.06642
    R2        2.06890  -0.00012   0.00018  -0.00088  -0.00069   2.06821
    R3        2.06969  -0.00012  -0.00008  -0.00005  -0.00013   2.06956
    R4        2.87912  -0.00013  -0.00016   0.00040   0.00024   2.87936
    R5        2.30730   0.00080   0.00117  -0.00400  -0.00283   2.30446
    R6        2.58471   0.00072  -0.00143   0.00696   0.00553   2.59024
    R7        1.90788   0.00057  -0.00012   0.00102   0.00090   1.90878
    R8        1.90464  -0.00011   0.00016  -0.00075  -0.00060   1.90404
    A1        1.90619  -0.00008  -0.00003  -0.00021  -0.00024   1.90595
    A2        1.87502  -0.00004   0.00004  -0.00024  -0.00020   1.87482
    A3        1.89461   0.00038  -0.00029   0.00331   0.00301   1.89762
    A4        1.89591   0.00021  -0.00010   0.00117   0.00107   1.89698
    A5        1.99017  -0.00021   0.00085  -0.00420  -0.00334   1.98682
    A6        1.89867  -0.00026  -0.00051   0.00035  -0.00016   1.89851
    A7        2.13287   0.00033  -0.00118   0.00658   0.00512   2.13800
    A8        2.01533  -0.00031   0.00065  -0.00335  -0.00297   2.01235
    A9        2.13442   0.00001   0.00059  -0.00193  -0.00161   2.13281
   A10        2.06391  -0.00010   0.00171  -0.00774  -0.00604   2.05788
   A11        2.14704  -0.00006  -0.00114   0.00454   0.00340   2.15043
   A12        2.07056   0.00016  -0.00058   0.00308   0.00250   2.07305
    D1       -0.86223   0.00036   0.00208   0.01885   0.02097  -0.84126
    D2        2.31469  -0.00033  -0.00040  -0.02150  -0.02194   2.29275
    D3       -2.99133   0.00032   0.00176   0.01952   0.02132  -2.97000
    D4        0.18559  -0.00037  -0.00072  -0.02083  -0.02158   0.16401
    D5        1.17299   0.00039   0.00169   0.02057   0.02230   1.19529
    D6       -1.93327  -0.00031  -0.00079  -0.01978  -0.02061  -1.95388
    D7        3.13711   0.00036   0.00092   0.02193   0.02278  -3.12329
[...]
 **** Fit       0.008480
 **** Fit       0.008958
 **** Fit       0.009428
 **** Fit       0.009891
 **** Fit       0.010341
 **** Fit       0.010771
 **** Fit       0.011173
 **** Fit       0.011536
 **** Fit       0.011850
 **** Fit       0.012105
 **** Fit       0.012293
 **** Fit       0.012410
 **** Fit       0.012452
 **** Fit       0.012418
 **** Fit       0.012310
 **** Fit       0.012131
 **** Fit      -0.010556
 **** Fit      -0.008784
 **** Fit      -0.007011
 **** Fit      -0.005285
 **** Fit      -0.003643
 **** Fit      -0.002110
 **** Fit      -0.000702
 **** Fit       0.000573
 **** Fit       0.001715
 **** Fit       0.002729
 **** Fit       0.003627
 **** Fit       0.004421
 **** Fit       0.005129
 **** Fit       0.005767
 **** Fit       0.006350
 **** Fit       0.006895
 **** Fit       0.007411
 **** Fit       0.007906
 **** Fit       0.008386
 **** Fit       0.008851
 **** Fit       0.009297
 **** Fit       0.009719
 **** Fit       0.010110
 **** Fit       0.010459
 **** Fit       0.010757
 **** Fit       0.010995
 **** Fit       0.011165
 **** Fit       0.011262
 **** Fit       0.011284
 **** Fit       0.011230
 **** Fit       0.011101
 **** Fit       0.010903
 **** Fit      -0.009253
 **** Fit      -0.007647
 **** Fit      -0.006018
 **** Fit      -0.004419
 **** Fit      -0.002893
 **** Fit      -0.001468
 **** Fit      -0.000163
 **** Fit       0.001016
 **** Fit       0.002069
 **** Fit       0.003005
 **** Fit       0.003836
 **** Fit       0.004577
 **** Fit       0.005246
 **** Fit       0.005858
 **** Fit       0.006427
 **** Fit       0.006962
 **** Fit       0.007470
 **** Fit       0.007953
 **** Fit       0.008407
 **** Fit       0.008827
 **** Fit       0.009205
 **** Fit       0.009531
 **** Fit       0.009794
 **** Fit       0.009986
 **** Fit       0.010101
 **** Fit       0.010134
 **** Fit       0.010084
 **** Fit       0.009953
 **** Fit       0.009745
 **** Fit      -0.008462
 **** Fit      -0.007074
 **** Fit      -0.005615
 **** Fit      -0.004151
 **** Fit      -0.002731
 **** Fit      -0.001392
 **** Fit      -0.000156
 **** Fit       0.000967
 **** Fit       0.001974
 **** Fit       0.002873
 **** Fit       0.003677
 **** Fit       0.004399
 **** Fit       0.005054
 **** Fit       0.005656
 **** Fit       0.006213
 **** Fit       0.006733
 **** Fit       0.007215
 **** Fit       0.007657
 **** Fit       0.008051
 **** Fit       0.008390
 **** Fit       0.008662
 **** Fit       0.008859
 **** Fit       0.008973
 **** Fit       0.009000
 **** Fit       0.008939
 **** Fit       0.008791
 **** Fit       0.008559
 **** Fit      -0.007206
 **** Fit      -0.005969
 **** Fit      -0.004636
 **** Fit      -0.003281
 **** Fit      -0.001960
 **** Fit      -0.000715
 **** Fit       0.000432
 **** Fit       0.001470
 **** Fit       0.002400
 **** Fit       0.003233
 **** Fit       0.003980
 **** Fit       0.004654
 **** Fit       0.005267
 **** Fit       0.005825
 **** Fit       0.006330
 **** Fit       0.006780
 **** Fit       0.007166
 **** Fit       0.007480
 **** Fit       0.007711
 **** Fit       0.007850
 **** Fit       0.007891
 **** Fit       0.007830
 **** Fit       0.007668
 **** Fit       0.007408
 **** Fit       0.007052
 **** Fit      -0.006314
 **** Fit      -0.005306
 **** Fit      -0.004149
 **** Fit      -0.002926
 **** Fit      -0.001707
 **** Fit      -0.000541
 **** Fit       0.000541
 **** Fit       0.001526
 **** Fit       0.002412
 **** Fit       0.003206
 **** Fit       0.003916
 **** Fit       0.004552
 **** Fit       0.005118
 **** Fit       0.005614
 **** Fit       0.006037
 **** Fit       0.006376
 **** Fit       0.006623
 **** Fit       0.006767
 **** Fit       0.006800
 **** Fit       0.006719
 **** Fit       0.006522
 **** Fit       0.006210
 **** Fit       0.005781
 **** Fit      -0.005683
 **** Fit      -0.005104
 **** Fit      -0.004232
 **** Fit      -0.003176
 **** Fit      -0.002037
 **** Fit      -0.000894
 **** Fit       0.000196
 **** Fit       0.001200
 **** Fit       0.002106
 **** Fit       0.002912
 **** Fit       0.003622
 **** Fit       0.004239
 **** Fit       0.004761
 **** Fit       0.005183
 **** Fit       0.005493
 **** Fit       0.005680
 **** Fit       0.005733
 **** Fit       0.005645
 **** Fit       0.005412
 **** Fit       0.005030
 **** Fit       0.004493
 **** Fit       0.003788
 **** Fit      -0.004334
 **** Fit      -0.003938
 **** Fit      -0.003187
 **** Fit      -0.002210
 **** Fit      -0.001133
 **** Fit      -0.000053
 **** Fit       0.000964
 **** Fit       0.001883
 **** Fit       0.002688
 **** Fit       0.003371
 **** Fit       0.003925
 **** Fit       0.004338
 **** Fit       0.004596
 **** Fit       0.004683
 **** Fit       0.004587
 **** Fit       0.004299
 **** Fit       0.003813
 **** Fit       0.003120
 **** Fit       0.001626
 **** Fit       0.000435
 **** Fit      -0.002801
 **** Fit      -0.003005
 **** Fit      -0.002633
 **** Fit      -0.001825
 **** Fit      -0.000779
 **** Fit       0.000321
 **** Fit       0.001348
 **** Fit       0.002231
 **** Fit       0.002927
 **** Fit       0.003403
 **** Fit       0.003629
 **** Fit       0.003576
 **** Fit       0.003227
 **** Fit       0.002574
 **** Fit       0.001145
 **** Fit      -0.000047
 **** Fit      -0.001153
 **** Fit      -0.001737
 **** Fit      -0.001573
 **** Fit      -0.000790
 **** Fit       0.000276
 **** Fit       0.001312
 **** Fit       0.002112
 **** Fit       0.002550
 **** Fit       0.002547
 **** Fit       0.002066
 **** Fit       0.000769
 **** Fit      -0.000316
 **** Fit      -0.000531
 **** Fit       0.000335
 **** Fit       0.001305
 **** Fit       0.001523
 **** Fit       0.000499
 **** Fit      -0.000467
 **** Fit       0.001149
 **** Fit       0.002588
 **** Fit       0.003866
 **** Fit       0.005002
 **** Fit       0.006012
 **** Fit      -0.003429
 **** Fit      -0.001466
 **** Fit       0.000285
 **** Fit       0.001844
 **** Fit       0.003233
 **** Fit       0.004469
 **** Fit       0.005571
 **** Fit       0.006555
 **** Fit       0.007436
 **** Fit       0.008228
 **** Fit      -0.004674
 **** Fit      -0.002559
 **** Fit      -0.000676
 **** Fit       0.001001
 **** Fit       0.002497
 **** Fit       0.003830
 **** Fit       0.005022
 **** Fit       0.006087
 **** Fit       0.007042
 **** Fit       0.007902
 **** Fit       0.008681
 **** Fit       0.009391
 **** Fit      -0.007598
 **** Fit      -0.005120
 **** Fit      -0.002923
 **** Fit      -0.000972
 **** Fit       0.000763
 **** Fit       0.002309
 **** Fit       0.003688
 **** Fit       0.004920
 **** Fit       0.006024
 **** Fit       0.007014
 **** Fit       0.007906
 **** Fit       0.008715
 **** Fit       0.009453
 **** Fit       0.010133
 **** Fit      -0.008119
 **** Fit      -0.005560
 **** Fit      -0.003297
 **** Fit      -0.001291
 **** Fit       0.000492
 **** Fit       0.002080
 **** Fit       0.003497
 **** Fit       0.004764
 **** Fit       0.005900
 **** Fit       0.006921
 **** Fit       0.007842
 **** Fit       0.008676
 **** Fit       0.009437
 **** Fit       0.010138
 **** Fit       0.010791
 **** Fit      -0.007619
 **** Fit      -0.005084
 **** Fit      -0.002847
 **** Fit      -0.000866
 **** Fit       0.000892
 **** Fit       0.002458
 **** Fit       0.003856
 **** Fit       0.005107
 **** Fit       0.006229
 **** Fit       0.007239
 **** Fit       0.008151
 **** Fit       0.008979
 **** Fit       0.009737
 **** Fit       0.010436
 **** Fit       0.011089
 **** Fit       0.011710
 **** Fit      -0.007071
 **** Fit      -0.004587
 **** Fit      -0.002397
 **** Fit      -0.000457
 **** Fit       0.001266
 **** Fit       0.002801
 **** Fit       0.004172
 **** Fit       0.005401
 **** Fit       0.006504
 **** Fit       0.007499
 **** Fit       0.008399
 **** Fit       0.009218
 **** Fit       0.009969
 **** Fit       0.010664
 **** Fit       0.011314
 **** Fit       0.011934
 **** Fit      -0.006493
 **** Fit      -0.004084
 **** Fit      -0.001957
 **** Fit      -0.000071
 **** Fit       0.001606
 **** Fit       0.003102
 **** Fit       0.004441
 **** Fit       0.005643
 **** Fit       0.006724
 **** Fit       0.007700
 **** Fit       0.008586
 **** Fit       0.009393
 **** Fit       0.010134
 **** Fit       0.010822
 **** Fit       0.011467
 **** Fit       0.012081
 **** Fit       0.012679
 **** Fit      -0.007541
 **** Fit      -0.004999
 **** Fit      -0.002759
 **** Fit      -0.000778
 **** Fit       0.000982
 **** Fit       0.002550
 **** Fit       0.003952
 **** Fit       0.005208
 **** Fit       0.006338
 **** Fit       0.007357
 **** Fit       0.008280
 **** Fit       0.009120
 **** Fit       0.009889
 **** Fit       0.010599
 **** Fit       0.011262
 **** Fit       0.011889
 **** Fit       0.012493
 **** Fit       0.013087
 **** Fit      -0.007588
 **** Fit      -0.005021
 **** Fit      -0.002762
 **** Fit      -0.000765
 **** Fit       0.001006
 **** Fit       0.002584
 **** Fit       0.003993
 **** Fit       0.005256
 **** Fit       0.006391
 **** Fit       0.007414
 **** Fit       0.008341
 **** Fit       0.009184
 **** Fit       0.009956
 **** Fit       0.010668
 **** Fit       0.011333
 **** Fit       0.011963
 **** Fit       0.012570
 **** Fit       0.013167
 **** Fit      -0.007588
 **** Fit      -0.005021
 **** Fit      -0.002762
 **** Fit      -0.000766
 **** Fit       0.001006
 **** Fit       0.002584
 **** Fit       0.003993
 **** Fit       0.005256
 **** Fit       0.006391
 **** Fit       0.007414
 **** Fit       0.008340
 **** Fit       0.009183
 **** Fit       0.009955
 **** Fit       0.010668
 **** Fit       0.011333
 **** Fit       0.011963
 **** Fit       0.012570
 **** Fit       0.013167
 **** Fit      -0.007542
 **** Fit      -0.005000
 **** Fit      -0.002761
 **** Fit      -0.000779
 **** Fit       0.000981
 **** Fit       0.002549
 **** Fit       0.003950
 **** Fit       0.005207
 **** Fit       0.006337
 **** Fit       0.007356
 **** Fit       0.008279
 **** Fit       0.009119
 **** Fit       0.009888
 **** Fit       0.010598
 **** Fit       0.011261
 **** Fit       0.011888
 **** Fit       0.012492
 **** Fit       0.013085
 **** Fit      -0.006496
 **** Fit      -0.004086
 **** Fit      -0.001959
 **** Fit      -0.000073
 **** Fit       0.001604
 **** Fit       0.003100
 **** Fit       0.004439
 **** Fit       0.005641
 **** Fit       0.006722
 **** Fit       0.007698
 **** Fit       0.008583
 **** Fit       0.009391
 **** Fit       0.010132
 **** Fit       0.010819
 **** Fit       0.011464
 **** Fit       0.012079
 **** Fit       0.012676
 **** Fit      -0.007073
 **** Fit      -0.004590
 **** Fit      -0.002399
 **** Fit      -0.000460
 **** Fit       0.001263
 **** Fit       0.002798
 **** Fit       0.004169
 **** Fit       0.005398
 **** Fit       0.006501
 **** Fit       0.007496
 **** Fit       0.008396
 **** Fit       0.009215
 **** Fit       0.009966
 **** Fit       0.010660
 **** Fit       0.011311
 **** Fit       0.011930
 **** Fit      -0.007623
 **** Fit      -0.005088
 **** Fit      -0.002851
 **** Fit      -0.000870
 **** Fit       0.000889
 **** Fit       0.002455
 **** Fit       0.003853
 **** Fit       0.005103
 **** Fit       0.006225
 **** Fit       0.007235
 **** Fit       0.008147
 **** Fit       0.008975
 **** Fit       0.009732
 **** Fit       0.010431
 **** Fit       0.011085
 **** Fit       0.011705
 **** Fit      -0.008124
 **** Fit      -0.005564
 **** Fit      -0.003301
 **** Fit      -0.001295
 **** Fit       0.000488
 **** Fit       0.002076
 **** Fit       0.003493
 **** Fit       0.004760
 **** Fit       0.005895
 **** Fit       0.006916
 **** Fit       0.007837
 **** Fit       0.008671
 **** Fit       0.009432
 **** Fit       0.010132
 **** Fit       0.010785
 **** Fit      -0.007603
 **** Fit      -0.005125
 **** Fit      -0.002929
 **** Fit      -0.000978
 **** Fit       0.000758
 **** Fit       0.002304
 **** Fit       0.003682
 **** Fit       0.004915
 **** Fit       0.006018
 **** Fit       0.007008
 **** Fit       0.007900
 **** Fit       0.008709
 **** Fit       0.009446
 **** Fit       0.010126
 **** Fit      -0.004680
 **** Fit      -0.002565
 **** Fit      -0.000682
 **** Fit       0.000995
 **** Fit       0.002490
 **** Fit       0.003824
 **** Fit       0.005015
 **** Fit       0.006080
 **** Fit       0.007035
 **** Fit       0.007895
 **** Fit       0.008673
 **** Fit       0.009383
 **** Fit      -0.003437
 **** Fit      -0.001473
 **** Fit       0.000278
 **** Fit       0.001837
 **** Fit       0.003225
 **** Fit       0.004462
 **** Fit       0.005564
 **** Fit       0.006547
 **** Fit       0.007427
 **** Fit       0.008219
 **** Fit      -0.000475
 **** Fit       0.001141
 **** Fit       0.002579
 **** Fit       0.003858
 **** Fit       0.004994
 **** Fit       0.006003
 **** Fit       0.016476
 **** Fit       0.016674
 **** Fit       0.016839
 **** Fit       0.016971
 **** Fit       0.017069
 **** Fit       0.016644
 **** Fit       0.016889
 **** Fit       0.017110
 **** Fit       0.017306
 **** Fit       0.017476
 **** Fit       0.017621
 **** Fit       0.017741
 **** Fit       0.017838
 **** Fit       0.017910
 **** Fit       0.016979
 **** Fit       0.017228
 **** Fit       0.017460
 **** Fit       0.017672
 **** Fit       0.017864
 **** Fit       0.018037
 **** Fit       0.018192
 **** Fit       0.018329
 **** Fit       0.018451
 **** Fit       0.018559
 **** Fit       0.017184
 **** Fit       0.017435
 **** Fit       0.017674
 **** Fit       0.017900
 **** Fit       0.018110
 **** Fit       0.018306
 **** Fit       0.018486
 **** Fit       0.018652
 **** Fit       0.018806
 **** Fit       0.018950
 **** Fit       0.019088
 **** Fit       0.017586
 **** Fit       0.017823
 **** Fit       0.018052
 **** Fit       0.018271
 **** Fit       0.018479
 **** Fit       0.018675
 **** Fit       0.018859
 **** Fit       0.019032
 **** Fit       0.019197
 **** Fit       0.019356
 **** Fit       0.019514
 **** Fit       0.019675
 **** Fit       0.017620
 **** Fit       0.017847
 **** Fit       0.018075
 **** Fit       0.018300
 **** Fit       0.018517
 **** Fit       0.018726
 **** Fit       0.018925
 **** Fit       0.019115
 **** Fit       0.019296
 **** Fit       0.019470
 **** Fit       0.019641
 **** Fit       0.019813
 **** Fit       0.019991
 **** Fit       0.017834
 **** Fit       0.018047
 **** Fit       0.018265
 **** Fit       0.018483
 **** Fit       0.018697
 **** Fit       0.018905
 **** Fit       0.019105
 **** Fit       0.019297
 **** Fit       0.019483
 **** Fit       0.019662
 **** Fit       0.019839
 **** Fit       0.020017
 **** Fit       0.020203
 **** Fit       0.020402
 **** Fit       0.018185
 **** Fit       0.018392
 **** Fit       0.018603
 **** Fit       0.018812
 **** Fit       0.019017
 **** Fit       0.019216
 **** Fit       0.019409
 **** Fit       0.019596
 **** Fit       0.019778
 **** Fit       0.019957
 **** Fit       0.020137
 **** Fit       0.020323
 **** Fit       0.020522
 **** Fit       0.018195
 **** Fit       0.018392
 **** Fit       0.018595
 **** Fit       0.018801
 **** Fit       0.019006
 **** Fit       0.019208
 **** Fit       0.019404
 **** Fit       0.019594
 **** Fit       0.019779
 **** Fit       0.019961
 **** Fit       0.020142
 **** Fit       0.020326
 **** Fit       0.020519
 **** Fit       0.020729
 **** Fit       0.018267
 **** Fit       0.018461
 **** Fit       0.018664
 **** Fit       0.018869
 **** Fit       0.019074
 **** Fit       0.019275
 **** Fit       0.019472
 **** Fit       0.019663
 **** Fit       0.019849
 **** Fit       0.020032
 **** Fit       0.020215
 **** Fit       0.020403
 **** Fit       0.020600
 **** Fit       0.020815
 **** Fit       0.018266
 **** Fit       0.018461
 **** Fit       0.018663
 **** Fit       0.018869
 **** Fit       0.019073
 **** Fit       0.019275
 **** Fit       0.019471
 **** Fit       0.019662
 **** Fit       0.019848
 **** Fit       0.020032
 **** Fit       0.020215
 **** Fit       0.020402
 **** Fit       0.020599
 **** Fit       0.020815
 **** Fit       0.018193
 **** Fit       0.018390
 **** Fit       0.018594
 **** Fit       0.018800
 **** Fit       0.019005
 **** Fit       0.019206
 **** Fit       0.019402
 **** Fit       0.019592
 **** Fit       0.019778
 **** Fit       0.019959
 **** Fit       0.020140
 **** Fit       0.020324
 **** Fit       0.020517
 **** Fit       0.020727
 **** Fit       0.018182
 **** Fit       0.018389
 **** Fit       0.018600
 **** Fit       0.018809
 **** Fit       0.019014
 **** Fit       0.019213
 **** Fit       0.019406
 **** Fit       0.019593
 **** Fit       0.019775
 **** Fit       0.019954
 **** Fit       0.020134
 **** Fit       0.020320
 **** Fit       0.020519
 **** Fit       0.017830
 **** Fit       0.018043
 **** Fit       0.018261
 **** Fit       0.018479
 **** Fit       0.018693
 **** Fit       0.018901
 **** Fit       0.019101
 **** Fit       0.019293
 **** Fit       0.019479
 **** Fit       0.019658
 **** Fit       0.019835
 **** Fit       0.020013
 **** Fit       0.020198
 **** Fit       0.020397
 **** Fit       0.017614
 **** Fit       0.017842
 **** Fit       0.018070
 **** Fit       0.018294
 **** Fit       0.018512
 **** Fit       0.018721
 **** Fit       0.018920
 **** Fit       0.019110
 **** Fit       0.019291
 **** Fit       0.019465
 **** Fit       0.019636
 **** Fit       0.019807
 **** Fit       0.019985
 **** Fit       0.017579
 **** Fit       0.017816
 **** Fit       0.018045
 **** Fit       0.018265
 **** Fit       0.018473
 **** Fit       0.018668
 **** Fit       0.018852
 **** Fit       0.019025
 **** Fit       0.019190
 **** Fit       0.019349
 **** Fit       0.019507
 **** Fit       0.019668
 **** Fit       0.017176
 **** Fit       0.017427
 **** Fit       0.017666
 **** Fit       0.017892
 **** Fit       0.018103
 **** Fit       0.018298
 **** Fit       0.018478
 **** Fit       0.018644
 **** Fit       0.018798
 **** Fit       0.018942
 **** Fit       0.019080
 **** Fit       0.016970
 **** Fit       0.017219
 **** Fit       0.017451
 **** Fit       0.017663
 **** Fit       0.017855
 **** Fit       0.018028
 **** Fit       0.018183
 **** Fit       0.018320
 **** Fit       0.018441
 **** Fit       0.018549
 **** Fit       0.016633
 **** Fit       0.016879
 **** Fit       0.017100
 **** Fit       0.017296
 **** Fit       0.017466
 **** Fit       0.017611
 **** Fit       0.017731
 **** Fit       0.017827
 **** Fit       0.017899
 **** Fit       0.016465
 **** Fit       0.016663
 **** Fit       0.016828
 **** Fit       0.016960
 **** Fit       0.017058
 -----------------------------------------------------------------
 Leave Link  602 at Wed Mar 27 14:12:32 2024, MaxMem=   104857600 cpu:               0.5 elap:               0.5
 (Enter /apps/versions/2023.01/rocky8/x86_64/generic/software/Gaussian/16.B.01/g16/l9999.exe)

 Test job not archived.
 1\1\GINC-LOGIN1\SP\RHF\6-31G(d)\C2H5N1O1\P315462\27-Mar-2024\0\\#P HF/
 6-31G* SCF=(Tight,MaxCycle=900) Geom=AllCheck Guess=Read Pop=MK IOp(6/
 33=2,6/41=10,6/42=17)\\Asparagine molecule\\0,1\C,0,2.9453168713,2.994
 7035491,3.5681103639\H,0,2.4451341692,3.2165590736,4.5156913605\H,0,3.
 5237881963,3.8705031287,3.2578721318\H,0,3.6311455952,2.1614818757,3.7
 488590191\C,0,1.8973228442,2.5532564673,2.5546180356\O,0,1.1681573548,
 1.5924432984,2.7468893456\N,0,1.8283186216,3.3065453275,1.4141782761\H
 ,0,1.1474724366,3.0505494448,0.7131386904\H,0,2.4243439107,4.100957834
 9,1.243642777\\Version=ES64L-G16RevB.01\State=1-A\HF=-207.9738012\RMSD
 =3.075e-09\Dipole=0.8507115,1.3060091,-0.4791922\Quadrupole=-0.8910233
 ,-1.6003776,2.4914009,-1.1889273,1.4757058,-0.7266609\PG=C01 [X(C2H5N1
 O1)]\\@


 Any fool can criticize, condemn, and complain -- and most do.
 -- Dale Carnegie
 Job cpu time:       0 days  0 hours  0 minutes  1.6 seconds.
 Elapsed time:       0 days  0 hours  0 minutes  1.8 seconds.
 File lengths (MBytes):  RWF=     17 Int=      0 D2E=      0 Chk=      2 Scr=      2
 Normal termination of Gaussian 16 at Wed Mar 27 14:12:32 2024.
