 Entering Gaussian System, Link 0=/apps/versions/2023.01/rocky8/x86_64/generic/software/Gaussian/16.B.01/g16/g16
 Input=ARG.com
 Output=ARG.log
 Initial command:
 /apps/versions/2023.01/rocky8/x86_64/generic/software/Gaussian/16.B.01/g16/l1.exe "/home3/p315462/Project/evb_solvent/reactant/ARG/Gau-2125279.inp" -scrdir="/home3/p315462/Project/evb_solvent/reactant/ARG/"
 Entering Link 1 = /apps/versions/2023.01/rocky8/x86_64/generic/software/Gaussian/16.B.01/g16/l1.exe PID=   2125465.
  
 Copyright (c) 1988-2017, Gaussian, Inc.  All Rights Reserved.
  
 This is part of the Gaussian(R) 16 program.  It is based on
 the Gaussian(R) 09 system (copyright 2009, Gaussian, Inc.),
 the Gaussian(R) 03 system (copyright 2003, Gaussian, Inc.),
 the Gaussian(R) 98 system (copyright 1998, Gaussian, Inc.),
 the Gaussian(R) 94 system (copyright 1995, Gaussian, Inc.),
 the Gaussian 92(TM) system (copyright 1992, Gaussian, Inc.),
 the Gaussian 90(TM) system (copyright 1990, Gaussian, Inc.),
 the Gaussian 88(TM) system (copyright 1988, Gaussian, Inc.),
 the Gaussian 86(TM) system (copyright 1986, Carnegie Mellon
 University), and the Gaussian 82(TM) system (copyright 1983,
 Carnegie Mellon University). Gaussian is a federally registered
 trademark of Gaussian, Inc.
  
 This software contains proprietary and confidential information,
 including trade secrets, belonging to Gaussian, Inc.
  
 This software is provided under written license and may be
 used, copied, transmitted, or stored only in accord with that
 written license.
  
 The following legend is applicable only to US Government
 contracts under FAR:
  
                    RESTRICTED RIGHTS LEGEND
  
 Use, reproduction and disclosure by the US Government is
 subject to restrictions as set forth in subparagraphs (a)
 and (c) of the Commercial Computer Software - Restricted
 Rights clause in FAR 52.227-19.
  
 Gaussian, Inc.
 340 Quinnipiac St., Bldg. 40, Wallingford CT 06492
  
  
 ---------------------------------------------------------------
 Warning -- This program may not be used in any manner that
 competes with the business of Gaussian, Inc. or will provide
 assistance to any competitor of Gaussian, Inc.  The licensee
 of this program is prohibited from giving any competitor of
 Gaussian, Inc. access to this program.  By using this program,
 the user acknowledges that Gaussian, Inc. is engaged in the
 business of creating and licensing software in the field of
 computational chemistry and represents and warrants to the
 licensee that it is not a competitor of Gaussian, Inc. and that
 it will not use this program in any manner prohibited above.
 ---------------------------------------------------------------
  

 Cite this work as:
 Gaussian 16, Revision B.01,
 M. J. Frisch, G. W. Trucks, H. B. Schlegel, G. E. Scuseria, 
 M. A. Robb, J. R. Cheeseman, G. Scalmani, V. Barone, 
 G. A. Petersson, H. Nakatsuji, X. Li, M. Caricato, A. V. Marenich, 
 J. Bloino, B. G. Janesko, R. Gomperts, B. Mennucci, H. P. Hratchian, 
 J. V. Ortiz, A. F. Izmaylov, J. L. Sonnenberg, D. Williams-Young, 
 F. Ding, F. Lipparini, F. Egidi, J. Goings, B. Peng, A. Petrone, 
 T. Henderson, D. Ranasinghe, V. G. Zakrzewski, J. Gao, N. Rega, 
 G. Zheng, W. Liang, M. Hada, M. Ehara, K. Toyota, R. Fukuda, 
 J. Hasegawa, M. Ishida, T. Nakajima, Y. Honda, O. Kitao, H. Nakai, 
 T. Vreven, K. Throssell, J. A. Montgomery, Jr., J. E. Peralta, 
 F. Ogliaro, M. J. Bearpark, J. J. Heyd, E. N. Brothers, K. N. Kudin, 
 V. N. Staroverov, T. A. Keith, R. Kobayashi, J. Normand, 
 K. Raghavachari, A. P. Rendell, J. C. Burant, S. S. Iyengar, 
 J. Tomasi, M. Cossi, J. M. Millam, M. Klene, C. Adamo, R. Cammi, 
 J. W. Ochterski, R. L. Martin, K. Morokuma, O. Farkas, 
 J. B. Foresman, and D. J. Fox, Gaussian, Inc., Wallingford CT, 2016.
 
 ******************************************
 Gaussian 16:  ES64L-G16RevB.01 20-Dec-2017
                28-Mar-2024 
 ******************************************
 %Mem=8192MB
 %NProcShared=8
 Will use up to    8 processors via shared memory.
 %chk=/scratch/p315462/ARG.chk
 %RWF=/scratch/p315462/ARG.rwf
 %Int=/scratch/p315462/ARG.int
 ----------------------------------
 #P B3LYP/6-31g* Opt=(MaxCycle=900)
 ----------------------------------
 1/6=900,18=20,19=15,26=3,38=1/1,3;
 2/9=110,12=2,17=6,18=5,40=1/2;
 3/5=1,6=6,7=1,11=2,25=1,30=1,71=1,74=-5/1,2,3;
 4//1;
 5/5=2,38=5/2;
 6/7=2,8=2,9=2,10=2,28=1/1;
 7//1,2,3,16;
 1/6=900,18=20,19=15,26=3/3(2);
 2/9=110/2;
 99//99;
 2/9=110/2;
 3/5=1,6=6,7=1,11=2,25=1,30=1,71=1,74=-5/1,2,3;
 4/5=5,16=3,69=1/1;
 5/5=2,38=5/2;
 7//1,2,3,16;
 1/6=900,18=20,19=15,26=3/3(-5);
 2/9=110/2;
 6/7=2,8=2,9=2,10=2,19=2,28=1/1;
 99/9=1/99;
 Leave Link    1 at Thu Mar 28 08:44:08 2024, MaxMem=  1073741824 cpu:               1.4 elap:               0.2
 (Enter /apps/versions/2023.01/rocky8/x86_64/generic/software/Gaussian/16.B.01/g16/l101.exe)
 -----------------
 Arginine molecule
 -----------------
 Symbolic Z-matrix:
 Charge =  0 Multiplicity = 2
 C                    -5.7553   -4.35305  -0.71339 
 H                    -6.06208  -4.64193   0.29478 
 H                    -5.444    -5.25022  -1.2556 
 H                    -6.57026  -3.8768   -1.26389 
 N                    -4.61356  -3.44348  -0.63881 
 H                    -3.74379  -3.74087  -1.06304 
 C                    -4.63866  -2.23984  -0.048 
 N                    -5.74002  -1.76353   0.53696 
 H                    -6.59812  -2.29872   0.55449 
 H                    -5.75728  -0.85558   0.98186 
 N                    -3.53347  -1.48844  -0.03969 
 H                    -2.6719   -1.8017   -0.46831 
 H                    -3.51955  -0.57584   0.39764 
 
 ITRead=  0  0  0  0  0  0  0  0  0  0  0  0  0
 MicOpt= -1 -1 -1 -1 -1 -1 -1 -1 -1 -1 -1 -1 -1
 NAtoms=     13 NQM=       13 NQMF=       0 NMMI=      0 NMMIF=      0
                NMic=       0 NMicF=      0.
                    Isotopes and Nuclear Properties:
 (Nuclear quadrupole moments (NQMom) in fm**2, nuclear magnetic moments (NMagM)
  in nuclear magnetons)

  Atom         1           2           3           4           5           6           7           8           9          10
 IAtWgt=          12           1           1           1          14           1          12          14           1           1
 AtmWgt=  12.0000000   1.0078250   1.0078250   1.0078250  14.0030740   1.0078250  12.0000000  14.0030740   1.0078250   1.0078250
 NucSpn=           0           1           1           1           2           1           0           2           1           1
 AtZEff=  -0.0000000  -0.0000000  -0.0000000  -0.0000000  -0.0000000  -0.0000000  -0.0000000  -0.0000000  -0.0000000  -0.0000000
 NQMom=    0.0000000   0.0000000   0.0000000   0.0000000   2.0440000   0.0000000   0.0000000   2.0440000   0.0000000   0.0000000
 NMagM=    0.0000000   2.7928460   2.7928460   2.7928460   0.4037610   2.7928460   0.0000000   0.4037610   2.7928460   2.7928460
 AtZNuc=   6.0000000   1.0000000   1.0000000   1.0000000   7.0000000   1.0000000   6.0000000   7.0000000   1.0000000   1.0000000

  Atom        11          12          13
 IAtWgt=          14           1           1
 AtmWgt=  14.0030740   1.0078250   1.0078250
 NucSpn=           2           1           1
 AtZEff=  -0.0000000  -0.0000000  -0.0000000
 NQMom=    2.0440000   0.0000000   0.0000000
 NMagM=    0.4037610   2.7928460   2.7928460
 AtZNuc=   7.0000000   1.0000000   1.0000000
 Leave Link  101 at Thu Mar 28 08:44:08 2024, MaxMem=  1073741824 cpu:               0.6 elap:               0.2
 (Enter /apps/versions/2023.01/rocky8/x86_64/generic/software/Gaussian/16.B.01/g16/l103.exe)

 GradGradGradGradGradGradGradGradGradGradGradGradGradGradGradGradGradGrad
 Berny optimization.
 Initialization pass.
                           ----------------------------
                           !    Initial Parameters    !
                           ! (Angstroms and Degrees)  !
 --------------------------                            --------------------------
 ! Name  Definition              Value          Derivative Info.                !
 --------------------------------------------------------------------------------
 ! R1    R(1,2)                  1.0927         estimate D2E/DX2                !
 ! R2    R(1,3)                  1.0935         estimate D2E/DX2                !
 ! R3    R(1,4)                  1.0927         estimate D2E/DX2                !
 ! R4    R(1,5)                  1.4617         estimate D2E/DX2                !
 ! R5    R(5,6)                  1.0124         estimate D2E/DX2                !
 ! R6    R(5,7)                  1.3411         estimate D2E/DX2                !
 ! R7    R(7,8)                  1.3349         estimate D2E/DX2                !
 ! R8    R(7,11)                 1.3365         estimate D2E/DX2                !
 ! R9    R(8,9)                  1.0115         estimate D2E/DX2                !
 ! R10   R(8,10)                 1.0112         estimate D2E/DX2                !
 ! R11   R(11,12)                1.012          estimate D2E/DX2                !
 ! R12   R(11,13)                1.0121         estimate D2E/DX2                !
 ! A1    A(2,1,3)              108.6933         estimate D2E/DX2                !
 ! A2    A(2,1,4)              111.7561         estimate D2E/DX2                !
 ! A3    A(2,1,5)              109.6787         estimate D2E/DX2                !
 ! A4    A(3,1,4)              108.6687         estimate D2E/DX2                !
 ! A5    A(3,1,5)              108.2689         estimate D2E/DX2                !
 ! A6    A(4,1,5)              109.6979         estimate D2E/DX2                !
 ! A7    A(1,5,6)              117.834          estimate D2E/DX2                !
 ! A8    A(1,5,7)              124.4981         estimate D2E/DX2                !
 ! A9    A(6,5,7)              117.6678         estimate D2E/DX2                !
 ! A10   A(5,7,8)              121.9199         estimate D2E/DX2                !
 ! A11   A(5,7,11)             119.4644         estimate D2E/DX2                !
 ! A12   A(8,7,11)             118.6157         estimate D2E/DX2                !
 ! A13   A(7,8,9)              121.2473         estimate D2E/DX2                !
 ! A14   A(7,8,10)             121.8183         estimate D2E/DX2                !
 ! A15   A(9,8,10)             116.9344         estimate D2E/DX2                !
 ! A16   A(7,11,12)            121.8272         estimate D2E/DX2                !
 ! A17   A(7,11,13)            121.4017         estimate D2E/DX2                !
 ! A18   A(12,11,13)           116.7711         estimate D2E/DX2                !
 ! D1    D(2,1,5,6)            118.1588         estimate D2E/DX2                !
 ! D2    D(2,1,5,7)            -61.9282         estimate D2E/DX2                !
 ! D3    D(3,1,5,6)             -0.2989         estimate D2E/DX2                !
 ! D4    D(3,1,5,7)            179.6141         estimate D2E/DX2                !
 ! D5    D(4,1,5,6)           -118.7378         estimate D2E/DX2                !
 ! D6    D(4,1,5,7)             61.1751         estimate D2E/DX2                !
 ! D7    D(1,5,7,8)              0.0645         estimate D2E/DX2                !
 ! D8    D(1,5,7,11)          -179.9404         estimate D2E/DX2                !
 ! D9    D(6,5,7,8)            179.9776         estimate D2E/DX2                !
 ! D10   D(6,5,7,11)            -0.0273         estimate D2E/DX2                !
 ! D11   D(5,7,8,9)              0.0314         estimate D2E/DX2                !
 ! D12   D(5,7,8,10)          -179.9867         estimate D2E/DX2                !
 ! D13   D(11,7,8,9)          -179.9637         estimate D2E/DX2                !
 ! D14   D(11,7,8,10)            0.0182         estimate D2E/DX2                !
 ! D15   D(5,7,11,12)           -0.0093         estimate D2E/DX2                !
 ! D16   D(5,7,11,13)          179.9986         estimate D2E/DX2                !
 ! D17   D(8,7,11,12)          179.986          estimate D2E/DX2                !
 ! D18   D(8,7,11,13)           -0.0061         estimate D2E/DX2                !
 --------------------------------------------------------------------------------
 Trust Radius=3.00D-01 FncErr=1.00D-07 GrdErr=1.00D-06 EigMax=2.50D+02 EigMin=1.00D-04
 Number of steps in this run=    100 maximum allowed number of steps=    100.
 GradGradGradGradGradGradGradGradGradGradGradGradGradGradGradGradGradGrad

 Leave Link  103 at Thu Mar 28 08:44:09 2024, MaxMem=  1073741824 cpu:               0.0 elap:               0.1
 (Enter /apps/versions/2023.01/rocky8/x86_64/generic/software/Gaussian/16.B.01/g16/l202.exe)
                          Input orientation:                          
 ---------------------------------------------------------------------
 Center     Atomic      Atomic             Coordinates (Angstroms)
 Number     Number       Type             X           Y           Z
 ---------------------------------------------------------------------
      1          6           0       -5.755300   -4.353050   -0.713390
      2          1           0       -6.062080   -4.641930    0.294780
      3          1           0       -5.444000   -5.250220   -1.255600
      4          1           0       -6.570260   -3.876800   -1.263890
      5          7           0       -4.613560   -3.443480   -0.638810
      6          1           0       -3.743790   -3.740870   -1.063040
      7          6           0       -4.638660   -2.239840   -0.048000
      8          7           0       -5.740020   -1.763530    0.536960
      9          1           0       -6.598120   -2.298720    0.554490
     10          1           0       -5.757280   -0.855580    0.981860
     11          7           0       -3.533470   -1.488440   -0.039690
     12          1           0       -2.671900   -1.801700   -0.468310
     13          1           0       -3.519550   -0.575840    0.397640
 ---------------------------------------------------------------------
                    Distance matrix (angstroms):
                    1          2          3          4          5
     1  C    0.000000
     2  H    1.092690   0.000000
     3  H    1.093533   1.776434   0.000000
     4  H    1.092714   1.809177   1.776179   0.000000
     5  N    1.461660   2.099067   2.081915   2.099325   0.000000
     6  H    2.131476   2.833735   2.281651   2.836856   1.012379
     7  C    2.480985   2.813123   3.342044   2.808755   1.341058
     8  N    2.875626   2.906469   3.931654   2.897977   2.339568
     9  H    2.556978   2.417731   3.649626   2.407824   2.583199
    10  H    3.886666   3.860237   4.941380   3.851247   3.260658
    11  N    3.687328   4.055889   4.390849   4.052780   2.312514
    12  H    4.009589   4.488043   4.494069   4.487338   2.548442
    13  H    4.527724   4.796679   5.318509   4.792061   3.239513
                    6          7          8          9         10
     6  H    0.000000
     7  C    2.020938   0.000000
     8  N    3.233390   1.334932   0.000000
     9  H    3.583769   2.050840   1.011470   0.000000
    10  H    4.069479   2.056234   1.011240   1.724039   0.000000
    11  N    2.482926   1.336456   2.297186   3.225164   2.527728
    12  H    2.294130   2.058342   3.228836   4.087585   3.538037
    13  H    3.493034   2.054239   2.522004   3.531361   2.329593
                   11         12         13
    11  N    0.000000
    12  H    1.012003   0.000000
    13  H    1.012072   1.723692   0.000000
 Stoichiometry    C2H8N3(2)
 Framework group  C1[X(C2H8N3)]
 Deg. of freedom    33
 Full point group                 C1      NOp   1
 Largest Abelian subgroup         C1      NOp   1
 Largest concise Abelian subgroup C1      NOp   1
                         Standard orientation:                         
 ---------------------------------------------------------------------
 Center     Atomic      Atomic             Coordinates (Angstroms)
 Number     Number       Type             X           Y           Z
 ---------------------------------------------------------------------
      1          6           0       -1.972067   -0.021307   -0.000291
      2          1           0       -2.089238    0.576337    0.906938
      3          1           0       -2.737278   -0.802475   -0.006648
      4          1           0       -2.084035    0.585349   -0.902209
      5          7           0       -0.659903   -0.665260    0.000560
      6          1           0       -0.629971   -1.677196    0.000197
      7          6           0        0.508881   -0.007703    0.000112
      8          7           0        0.568457    1.325899    0.000090
      9          1           0       -0.272008    1.888650    0.000887
     10          1           0        1.450670    1.820173   -0.000448
     11          7           0        1.652358   -0.699496   -0.000228
     12          1           0        1.663904   -1.711432   -0.000017
     13          1           0        2.550689   -0.233351   -0.000590
 ---------------------------------------------------------------------
 Rotational constants (GHZ):           9.4603353           3.9331340           2.8294355
 Leave Link  202 at Thu Mar 28 08:44:09 2024, MaxMem=  1073741824 cpu:               0.0 elap:               0.1
 (Enter /apps/versions/2023.01/rocky8/x86_64/generic/software/Gaussian/16.B.01/g16/l301.exe)
 Standard basis: 6-31G(d) (6D, 7F)
 Ernie: Thresh=  0.10000D-02 Tol=  0.10000D-05 Strict=F.
 There are    91 symmetry adapted cartesian basis functions of A   symmetry.
 There are    91 symmetry adapted basis functions of A   symmetry.
    91 basis functions,   172 primitive gaussians,    91 cartesian basis functions
    21 alpha electrons       20 beta electrons
       nuclear repulsion energy       192.6690125792 Hartrees.
 IExCor=  402 DFT=T Ex+Corr=B3LYP ExCW=0 ScaHFX=  0.200000
 ScaDFX=  0.800000  0.720000  1.000000  0.810000 ScalE2=  1.000000  1.000000
 IRadAn=      5 IRanWt=     -1 IRanGd=            0 ICorTp=0 IEmpDi=  4
 NAtoms=   13 NActive=   13 NUniq=   13 SFac= 1.00D+00 NAtFMM=   60 NAOKFM=F Big=F
 Integral buffers will be    131072 words long.
 Raffenetti 2 integral format.
 Two-electron integral symmetry is turned on.
 Leave Link  301 at Thu Mar 28 08:44:09 2024, MaxMem=  1073741824 cpu:               0.1 elap:               0.1
 (Enter /apps/versions/2023.01/rocky8/x86_64/generic/software/Gaussian/16.B.01/g16/l302.exe)
 NPDir=0 NMtPBC=     1 NCelOv=     1 NCel=       1 NClECP=     1 NCelD=      1
         NCelK=      1 NCelE2=     1 NClLst=     1 CellRange=     0.0.
 One-electron integrals computed using PRISM.
 One-electron integral symmetry used in STVInt
 NBasis=    91 RedAO= T EigKep=  2.58D-03  NBF=    91
 NBsUse=    91 1.00D-06 EigRej= -1.00D+00 NBFU=    91
 Precomputing XC quadrature grid using
 IXCGrd= 4 IRadAn=           5 IRanWt=          -1 IRanGd=           0 AccXCQ= 0.00D+00.
 Generated NRdTot=       0 NPtTot=           0 NUsed=           0 NTot=          32
 NSgBfM=    91    91    91    91    91 MxSgAt=    13 MxSgA2=    13.
 Leave Link  302 at Thu Mar 28 08:44:09 2024, MaxMem=  1073741824 cpu:               0.6 elap:               0.2
 (Enter /apps/versions/2023.01/rocky8/x86_64/generic/software/Gaussian/16.B.01/g16/l303.exe)
 DipDrv:  MaxL=1.
 Leave Link  303 at Thu Mar 28 08:44:10 2024, MaxMem=  1073741824 cpu:               0.1 elap:               0.1
 (Enter /apps/versions/2023.01/rocky8/x86_64/generic/software/Gaussian/16.B.01/g16/l401.exe)
 ExpMin= 1.61D-01 ExpMax= 4.17D+03 ExpMxC= 6.27D+02 IAcc=3 IRadAn=         5 AccDes= 0.00D+00
 Harris functional with IExCor=  402 and IRadAn=       5 diagonalized for initial guess.
 HarFok:  IExCor=  402 AccDes= 0.00D+00 IRadAn=         5 IDoV= 1 UseB2=F ITyADJ=14
 ICtDFT=  3500011 ScaDFX=  1.000000  1.000000  1.000000  1.000000
 FoFCou: FMM=F IPFlag=           0 FMFlag=      100000 FMFlg1=           0
         NFxFlg=           0 DoJE=T BraDBF=F KetDBF=T FulRan=T
         wScrn=  0.000000 ICntrl=       500 IOpCl=  0 I1Cent=   200000004 NGrid=           0
         NMat0=    1 NMatS0=      1 NMatT0=    0 NMatD0=    1 NMtDS0=    0 NMtDT0=    0
 Petite list used in FoFCou.
 Harris En= -245.157487549951    
 JPrj=0 DoOrth=F DoCkMO=F.
 Initial guess <Sx>= 0.0000 <Sy>= 0.0000 <Sz>= 0.5000 <S**2>= 0.7500 S= 0.5000
 Leave Link  401 at Thu Mar 28 08:44:10 2024, MaxMem=  1073741824 cpu:               1.7 elap:               0.3
 (Enter /apps/versions/2023.01/rocky8/x86_64/generic/software/Gaussian/16.B.01/g16/l502.exe)
 Integral symmetry usage will be decided dynamically.
 UHF open shell SCF:
 Using DIIS extrapolation, IDIIS=  1040.
 NGot=  1073741824 LenX=  1073723292 LenY=  1073714570
 Requested convergence on RMS density matrix=1.00D-08 within 128 cycles.
 Requested convergence on MAX density matrix=1.00D-06.
 Requested convergence on             energy=1.00D-06.
 No special actions if energy rises.
 Fock matrices will be formed incrementally for  20 cycles.
 Integral accuracy reduced to 1.0D-05 until final iterations.

 Cycle   1  Pass 0  IDiag  1:
 FoFJK:  IHMeth= 1 ICntrl=       0 DoSepK=F KAlg= 0 I1Cent=           0 FoldK=F
 IRaf= 990000000 NMat=       1 IRICut=       1 DoRegI=T DoRafI=F ISym2E= 0 IDoP0=0 IntGTp=1.
 FoFCou: FMM=F IPFlag=           0 FMFlag=      100000 FMFlg1=           0
         NFxFlg=           0 DoJE=F BraDBF=F KetDBF=F FulRan=T
         wScrn=  0.000000 ICntrl=         0 IOpCl=  1 I1Cent=           0 NGrid=           0
         NMat0=    1 NMatS0=      1 NMatT0=    0 NMatD0=    1 NMtDS0=    0 NMtDT0=    0
 Symmetry not used in FoFCou.
 E= -244.929799732931    
 DIIS: error= 5.02D-02 at cycle   1 NSaved=   1.
 NSaved= 1 IEnMin= 1 EnMin= -244.929799732931     IErMin= 1 ErrMin= 5.02D-02
 ErrMax= 5.02D-02  0.00D+00 EMaxC= 1.00D-01 BMatC= 8.88D-01 BMatP= 8.88D-01
 IDIUse=3 WtCom= 4.98D-01 WtEn= 5.02D-01
 Coeff-Com:  0.100D+01
 Coeff-En:   0.100D+01
 Coeff:      0.100D+01
 Gap=    -0.049 Goal=   None    Shift=    0.000
 Gap=     0.343 Goal=   None    Shift=    0.000
 GapD=   -0.049 DampG=0.250 DampE=0.500 DampFc=0.2500 IDamp=-1.
 Damping current iteration by 2.50D-01
 RMSDP=4.87D-02 MaxDP=1.13D+00              OVMax= 9.91D-01

 Cycle   2  Pass 0  IDiag  1:
 RMSU=  1.21D-02    CP:  9.70D-01
 E= -245.008238346396     Delta-E=       -0.078438613465 Rises=F Damp=T
 DIIS: error= 2.10D-02 at cycle   2 NSaved=   2.
 NSaved= 2 IEnMin= 2 EnMin= -245.008238346396     IErMin= 2 ErrMin= 2.10D-02
 ErrMax= 2.10D-02  0.00D+00 EMaxC= 1.00D-01 BMatC= 1.71D-01 BMatP= 8.88D-01
 IDIUse=3 WtCom= 7.90D-01 WtEn= 2.10D-01
 Coeff-Com: -0.645D+00 0.164D+01
 Coeff-En:   0.000D+00 0.100D+01
 Coeff:     -0.509D+00 0.151D+01
 Gap=     0.056 Goal=   None    Shift=    0.000
 Gap=     0.278 Goal=   None    Shift=    0.000
 RMSDP=1.28D-02 MaxDP=3.15D-01 DE=-7.84D-02 OVMax= 9.99D-01

 Cycle   3  Pass 0  IDiag  1:
 RMSU=  4.88D-03    CP:  9.78D-01  2.81D-02
 E= -245.122881809132     Delta-E=       -0.114643462736 Rises=F Damp=F
 DIIS: error= 1.45D-02 at cycle   3 NSaved=   3.
 NSaved= 3 IEnMin= 3 EnMin= -245.122881809132     IErMin= 3 ErrMin= 1.45D-02
 ErrMax= 1.45D-02  0.00D+00 EMaxC= 1.00D-01 BMatC= 6.49D-02 BMatP= 1.71D-01
 IDIUse=3 WtCom= 8.55D-01 WtEn= 1.45D-01
 Coeff-Com: -0.380D+00 0.951D+00 0.429D+00
 Coeff-En:   0.000D+00 0.000D+00 0.100D+01
 Coeff:     -0.325D+00 0.813D+00 0.512D+00
 Gap=     0.019 Goal=   None    Shift=    0.000
 Gap=     0.274 Goal=   None    Shift=    0.000
 RMSDP=1.78D-03 MaxDP=4.11D-02 DE=-1.15D-01 OVMax= 5.12D-02

 Cycle   4  Pass 0  IDiag  1:
 RMSU=  1.77D-03    CP:  9.83D-01  2.43D-02  1.01D+00
 E= -245.136914145063     Delta-E=       -0.014032335931 Rises=F Damp=F
 DIIS: error= 3.23D-03 at cycle   4 NSaved=   4.
 NSaved= 4 IEnMin= 4 EnMin= -245.136914145063     IErMin= 4 ErrMin= 3.23D-03
 ErrMax= 3.23D-03  0.00D+00 EMaxC= 1.00D-01 BMatC= 4.29D-03 BMatP= 6.49D-02
 IDIUse=3 WtCom= 9.68D-01 WtEn= 3.23D-02
 Coeff-Com: -0.118D+00 0.184D+00 0.128D+00 0.806D+00
 Coeff-En:   0.000D+00 0.000D+00 0.000D+00 0.100D+01
 Coeff:     -0.115D+00 0.178D+00 0.124D+00 0.812D+00
 Gap=     0.038 Goal=   None    Shift=    0.000
 Gap=     0.268 Goal=   None    Shift=    0.000
 RMSDP=4.57D-04 MaxDP=1.44D-02 DE=-1.40D-02 OVMax= 1.17D-02

 Cycle   5  Pass 0  IDiag  1:
 RMSU=  3.30D-04    CP:  9.82D-01  2.85D-02  1.03D+00  8.41D-01
 E= -245.137894532973     Delta-E=       -0.000980387911 Rises=F Damp=F
 DIIS: error= 1.16D-03 at cycle   5 NSaved=   5.
 NSaved= 5 IEnMin= 5 EnMin= -245.137894532973     IErMin= 5 ErrMin= 1.16D-03
 ErrMax= 1.16D-03  0.00D+00 EMaxC= 1.00D-01 BMatC= 4.46D-04 BMatP= 4.29D-03
 IDIUse=3 WtCom= 9.88D-01 WtEn= 1.16D-02
 Coeff-Com: -0.319D-01 0.336D-01-0.242D-01 0.204D+00 0.819D+00
 Coeff-En:   0.000D+00 0.000D+00 0.000D+00 0.000D+00 0.100D+01
 Coeff:     -0.315D-01 0.332D-01-0.239D-01 0.201D+00 0.821D+00
 Gap=     0.042 Goal=   None    Shift=    0.000
 Gap=     0.266 Goal=   None    Shift=    0.000
 RMSDP=1.34D-04 MaxDP=2.72D-03 DE=-9.80D-04 OVMax= 5.23D-03

 Cycle   6  Pass 0  IDiag  1:
 RMSU=  1.03D-04    CP:  9.81D-01  2.93D-02  1.04D+00  8.79D-01  1.12D+00
 E= -245.138002602574     Delta-E=       -0.000108069601 Rises=F Damp=F
 DIIS: error= 3.64D-04 at cycle   6 NSaved=   6.
 NSaved= 6 IEnMin= 6 EnMin= -245.138002602574     IErMin= 6 ErrMin= 3.64D-04
 ErrMax= 3.64D-04  0.00D+00 EMaxC= 1.00D-01 BMatC= 7.03D-05 BMatP= 4.46D-04
 IDIUse=3 WtCom= 9.96D-01 WtEn= 3.64D-03
 Coeff-Com: -0.466D-02 0.809D-03-0.309D-01-0.862D-02 0.384D+00 0.659D+00
 Coeff-En:   0.000D+00 0.000D+00 0.000D+00 0.000D+00 0.000D+00 0.100D+01
 Coeff:     -0.464D-02 0.806D-03-0.308D-01-0.859D-02 0.383D+00 0.661D+00
 Gap=     0.043 Goal=   None    Shift=    0.000
 Gap=     0.267 Goal=   None    Shift=    0.000
 RMSDP=5.90D-05 MaxDP=1.54D-03 DE=-1.08D-04 OVMax= 2.00D-03

 Cycle   7  Pass 0  IDiag  1:
 RMSU=  4.63D-05    CP:  9.81D-01  2.95D-02  1.04D+00  8.70D-01  1.20D+00
                    CP:  8.41D-01
 E= -245.138019007527     Delta-E=       -0.000016404953 Rises=F Damp=F
 DIIS: error= 1.65D-04 at cycle   7 NSaved=   7.
 NSaved= 7 IEnMin= 7 EnMin= -245.138019007527     IErMin= 7 ErrMin= 1.65D-04
 ErrMax= 1.65D-04  0.00D+00 EMaxC= 1.00D-01 BMatC= 9.74D-06 BMatP= 7.03D-05
 IDIUse=3 WtCom= 9.98D-01 WtEn= 1.65D-03
 Coeff-Com:  0.264D-02-0.301D-02-0.680D-02-0.426D-01-0.219D-01 0.294D+00
 Coeff-Com:  0.777D+00
 Coeff-En:   0.000D+00 0.000D+00 0.000D+00 0.000D+00 0.000D+00 0.000D+00
 Coeff-En:   0.100D+01
 Coeff:      0.264D-02-0.301D-02-0.679D-02-0.425D-01-0.219D-01 0.294D+00
 Coeff:      0.778D+00
 Gap=     0.043 Goal=   None    Shift=    0.000
 Gap=     0.267 Goal=   None    Shift=    0.000
 RMSDP=3.32D-05 MaxDP=8.09D-04 DE=-1.64D-05 OVMax= 9.03D-04

 Cycle   8  Pass 0  IDiag  1:
 RMSU=  1.90D-05    CP:  9.81D-01  2.97D-02  1.04D+00  8.62D-01  1.26D+00
                    CP:  9.76D-01  1.05D+00
 E= -245.138021524048     Delta-E=       -0.000002516521 Rises=F Damp=F
 DIIS: error= 2.15D-05 at cycle   8 NSaved=   8.
 NSaved= 8 IEnMin= 8 EnMin= -245.138021524048     IErMin= 8 ErrMin= 2.15D-05
 ErrMax= 2.15D-05  0.00D+00 EMaxC= 1.00D-01 BMatC= 3.02D-07 BMatP= 9.74D-06
 IDIUse=1 WtCom= 1.00D+00 WtEn= 0.00D+00
 Coeff-Com:  0.767D-03-0.616D-03 0.111D-02-0.756D-02-0.316D-01 0.247D-01
 Coeff-Com:  0.164D+00 0.849D+00
 Coeff:      0.767D-03-0.616D-03 0.111D-02-0.756D-02-0.316D-01 0.247D-01
 Coeff:      0.164D+00 0.849D+00
 Gap=     0.043 Goal=   None    Shift=    0.000
 Gap=     0.267 Goal=   None    Shift=    0.000
 RMSDP=1.49D-05 MaxDP=2.60D-04 DE=-2.52D-06 OVMax= 4.68D-04

 Cycle   9  Pass 0  IDiag  1:
 RMSU=  1.05D-05    CP:  9.81D-01  2.97D-02  1.04D+00  8.61D-01  1.26D+00
                    CP:  1.01D+00  1.18D+00  1.38D+00
 E= -245.138021614940     Delta-E=       -0.000000090892 Rises=F Damp=F
 DIIS: error= 1.87D-05 at cycle   9 NSaved=   9.
 NSaved= 9 IEnMin= 9 EnMin= -245.138021614940     IErMin= 9 ErrMin= 1.87D-05
 ErrMax= 1.87D-05  0.00D+00 EMaxC= 1.00D-01 BMatC= 9.61D-08 BMatP= 3.02D-07
 IDIUse=1 WtCom= 1.00D+00 WtEn= 0.00D+00
 Coeff-Com:  0.188D-03-0.185D-03 0.119D-02 0.818D-03-0.115D-01-0.177D-01
 Coeff-Com: -0.605D-02 0.388D+00 0.645D+00
 Coeff:      0.188D-03-0.185D-03 0.119D-02 0.818D-03-0.115D-01-0.177D-01
 Coeff:     -0.605D-02 0.388D+00 0.645D+00
 Gap=     0.043 Goal=   None    Shift=    0.000
 Gap=     0.267 Goal=   None    Shift=    0.000
 RMSDP=1.16D-05 MaxDP=2.17D-04 DE=-9.09D-08 OVMax= 3.73D-04

 Cycle  10  Pass 0  IDiag  1:
 RMSU=  3.80D-06    CP:  9.81D-01  2.98D-02  1.04D+00  8.60D-01  1.27D+00
                    CP:  1.02D+00  1.25D+00  1.76D+00  1.69D+00
 E= -245.138021650227     Delta-E=       -0.000000035287 Rises=F Damp=F
 DIIS: error= 4.12D-06 at cycle  10 NSaved=  10.
 NSaved=10 IEnMin=10 EnMin= -245.138021650227     IErMin=10 ErrMin= 4.12D-06
 ErrMax= 4.12D-06  0.00D+00 EMaxC= 1.00D-01 BMatC= 8.29D-09 BMatP= 9.61D-08
 IDIUse=1 WtCom= 1.00D+00 WtEn= 0.00D+00
 Coeff-Com: -0.378D-06-0.163D-04 0.314D-03 0.110D-02-0.378D-03-0.863D-02
 Coeff-Com: -0.191D-01 0.297D-01 0.202D+00 0.795D+00
 Coeff:     -0.378D-06-0.163D-04 0.314D-03 0.110D-02-0.378D-03-0.863D-02
 Coeff:     -0.191D-01 0.297D-01 0.202D+00 0.795D+00
 Gap=     0.043 Goal=   None    Shift=    0.000
 Gap=     0.267 Goal=   None    Shift=    0.000
 RMSDP=1.39D-05 MaxDP=2.65D-04 DE=-3.53D-08 OVMax= 4.53D-04

 Cycle  11  Pass 0  IDiag  1:
 RMSU=  1.28D-06    CP:  9.81D-01  2.98D-02  1.04D+00  8.60D-01  1.27D+00
                    CP:  1.04D+00  1.33D+00  2.19D+00  2.65D+00  1.88D+00
 E= -245.138021665176     Delta-E=       -0.000000014949 Rises=F Damp=F
 DIIS: error= 3.71D-06 at cycle  11 NSaved=  11.
 NSaved=11 IEnMin=11 EnMin= -245.138021665176     IErMin=11 ErrMin= 3.71D-06
 ErrMax= 3.71D-06  0.00D+00 EMaxC= 1.00D-01 BMatC= 3.38D-09 BMatP= 8.29D-09
 IDIUse=1 WtCom= 1.00D+00 WtEn= 0.00D+00
 Coeff-Com: -0.540D-06-0.304D-05 0.414D-05 0.164D-03 0.580D-03-0.693D-03
 Coeff-Com: -0.355D-02-0.165D-01-0.331D-03 0.158D+00 0.862D+00
 Coeff:     -0.540D-06-0.304D-05 0.414D-05 0.164D-03 0.580D-03-0.693D-03
 Coeff:     -0.355D-02-0.165D-01-0.331D-03 0.158D+00 0.862D+00
 Gap=     0.043 Goal=   None    Shift=    0.000
 Gap=     0.267 Goal=   None    Shift=    0.000
 RMSDP=1.51D-05 MaxDP=2.88D-04 DE=-1.49D-08 OVMax= 4.91D-04

 Cycle  12  Pass 0  IDiag  1:
 RMSU=  7.18D-06    CP:  9.81D-01  2.98D-02  1.04D+00  8.60D-01  1.27D+00
                    CP:  1.06D+00  1.42D+00  2.64D+00  3.00D+00  2.92D+00
                    CP:  1.92D+00
 E= -245.138021680841     Delta-E=       -0.000000015664 Rises=F Damp=F
 DIIS: error= 3.86D-06 at cycle  12 NSaved=  12.
 NSaved=12 IEnMin=12 EnMin= -245.138021680841     IErMin=11 ErrMin= 3.71D-06
 ErrMax= 3.86D-06  0.00D+00 EMaxC= 1.00D-01 BMatC= 3.44D-09 BMatP= 3.38D-09
 IDIUse=1 WtCom= 1.00D+00 WtEn= 0.00D+00
 Coeff-Com: -0.157D-05-0.292D-05 0.212D-05 0.202D-03 0.726D-03-0.835D-03
 Coeff-Com: -0.437D-02-0.211D-01-0.839D-03 0.199D+00 0.107D+01-0.245D+00
 Coeff:     -0.157D-05-0.292D-05 0.212D-05 0.202D-03 0.726D-03-0.835D-03
 Coeff:     -0.437D-02-0.211D-01-0.839D-03 0.199D+00 0.107D+01-0.245D+00
 Gap=     0.043 Goal=   None    Shift=    0.000
 Gap=     0.267 Goal=   None    Shift=    0.000
 RMSDP=4.19D-06 MaxDP=7.99D-05 DE=-1.57D-08 OVMax= 1.36D-04

 Initial convergence to 1.0D-05 achieved.  Increase integral accuracy.
 Cycle  13  Pass 1  IDiag  1:
 E= -245.138023896725     Delta-E=       -0.000002215884 Rises=F Damp=F
 DIIS: error= 5.32D-06 at cycle   1 NSaved=   1.
 NSaved= 1 IEnMin= 1 EnMin= -245.138023896725     IErMin= 1 ErrMin= 5.32D-06
 ErrMax= 5.32D-06  0.00D+00 EMaxC= 1.00D-01 BMatC= 8.77D-09 BMatP= 8.77D-09
 IDIUse=1 WtCom= 1.00D+00 WtEn= 0.00D+00
 Coeff-Com:  0.100D+01
 Coeff:      0.100D+01
 Gap=     0.043 Goal=   None    Shift=    0.000
 Gap=     0.267 Goal=   None    Shift=    0.000
 RMSDP=4.19D-06 MaxDP=7.99D-05 DE=-2.22D-06 OVMax= 5.52D-04

 Cycle  14  Pass 1  IDiag  1:
 RMSU=  1.70D-05    CP:  1.00D+00
 E= -245.138023927331     Delta-E=       -0.000000030606 Rises=F Damp=F
 DIIS: error= 3.96D-06 at cycle   2 NSaved=   2.
 NSaved= 2 IEnMin= 2 EnMin= -245.138023927331     IErMin= 2 ErrMin= 3.96D-06
 ErrMax= 3.96D-06  0.00D+00 EMaxC= 1.00D-01 BMatC= 3.91D-09 BMatP= 8.77D-09
 IDIUse=1 WtCom= 1.00D+00 WtEn= 0.00D+00
 Coeff-Com:  0.705D-01 0.930D+00
 Coeff:      0.705D-01 0.930D+00
 Gap=     0.043 Goal=   None    Shift=    0.000
 Gap=     0.267 Goal=   None    Shift=    0.000
 RMSDP=1.64D-05 MaxDP=3.13D-04 DE=-3.06D-08 OVMax= 5.33D-04

 Cycle  15  Pass 1  IDiag  1:
 RMSU=  1.42D-06    CP:  1.00D+00  1.96D+00
 E= -245.138023956147     Delta-E=       -0.000000028816 Rises=F Damp=F
 DIIS: error= 4.12D-06 at cycle   3 NSaved=   3.
 NSaved= 3 IEnMin= 3 EnMin= -245.138023956147     IErMin= 2 ErrMin= 3.96D-06
 ErrMax= 4.12D-06  0.00D+00 EMaxC= 1.00D-01 BMatC= 4.37D-09 BMatP= 3.91D-09
 IDIUse=1 WtCom= 1.00D+00 WtEn= 0.00D+00
 Coeff-Com:  0.124D-01 0.631D+00 0.356D+00
 Coeff:      0.124D-01 0.631D+00 0.356D+00
 Gap=     0.043 Goal=   None    Shift=    0.000
 Gap=     0.267 Goal=   None    Shift=    0.000
 RMSDP=7.08D-06 MaxDP=1.35D-04 DE=-2.88D-08 OVMax= 2.30D-04

 Cycle  16  Pass 1  IDiag  1:
 RMSU=  1.71D-07    CP:  1.00D+00  2.37D+00  1.38D+00
 E= -245.138023969036     Delta-E=       -0.000000012889 Rises=F Damp=F
 DIIS: error= 4.18D-06 at cycle   4 NSaved=   4.
 NSaved= 4 IEnMin= 4 EnMin= -245.138023969036     IErMin= 2 ErrMin= 3.96D-06
 ErrMax= 4.18D-06  0.00D+00 EMaxC= 1.00D-01 BMatC= 3.99D-09 BMatP= 3.91D-09
 IDIUse=1 WtCom= 1.00D+00 WtEn= 0.00D+00
 Large coefficients: NSaved=  4 BigCof=   11.38 CofMax=   10.00 Det=-2.74D-11
 Inversion failed.  Reducing to  3 matrices.
 Coeff-Com:  0.471D+01 0.571D+01-0.943D+01
 Coeff:      0.471D+01 0.571D+01-0.943D+01
 Gap=     0.043 Goal=   None    Shift=    0.000
 Gap=     0.267 Goal=   None    Shift=    0.000
 RMSDP=1.38D-04 MaxDP=2.64D-03 DE=-1.29D-08 OVMax= 4.50D-03

 Cycle  17  Pass 1  IDiag  1:
 RMSU=  4.68D-05    CP:  1.00D+00 -3.00D+00 -3.00D+00 -3.00D+00
 E= -245.138023753744     Delta-E=        0.000000215292 Rises=F Damp=F
 DIIS: error= 2.98D-06 at cycle   5 NSaved=   4.
 NSaved= 4 IEnMin= 3 EnMin= -245.138023969036     IErMin= 4 ErrMin= 2.98D-06
 ErrMax= 2.98D-06  0.00D+00 EMaxC= 1.00D-01 BMatC= 2.43D-09 BMatP= 3.91D-09
 IDIUse=1 WtCom= 1.00D+00 WtEn= 0.00D+00
 Coeff-Com:  0.377D+01 0.519D+01-0.946D+01 0.149D+01
 Coeff:      0.377D+01 0.519D+01-0.946D+01 0.149D+01
 Gap=     0.043 Goal=   None    Shift=    0.000
 Gap=     0.267 Goal=   None    Shift=    0.000
 RMSDP=1.88D-04 MaxDP=3.59D-03 DE= 2.15D-07 OVMax= 6.11D-03

 Cycle  18  Pass 1  IDiag  1:
 RMSU=  9.45D-05    CP:  1.00D+00 -3.00D+00 -3.00D+00 -3.00D+00  3.00D+00
 E= -245.138023578659     Delta-E=        0.000000175085 Rises=F Damp=F
 DIIS: error= 1.31D-06 at cycle   6 NSaved=   5.
 NSaved= 5 IEnMin= 3 EnMin= -245.138023969036     IErMin= 5 ErrMin= 1.31D-06
 ErrMax= 1.31D-06  0.00D+00 EMaxC= 1.00D-01 BMatC= 6.82D-10 BMatP= 2.43D-09
 IDIUse=1 WtCom= 1.00D+00 WtEn= 0.00D+00
 Coeff-Com:  0.745D+00 0.790D+00-0.191D+01 0.253D+00 0.112D+01
 Coeff:      0.745D+00 0.790D+00-0.191D+01 0.253D+00 0.112D+01
 Gap=     0.043 Goal=   None    Shift=    0.000
 Gap=     0.267 Goal=   None    Shift=    0.000
 RMSDP=9.59D-05 MaxDP=1.83D-03 DE= 1.75D-07 OVMax= 3.12D-03

 Cycle  19  Pass 1  IDiag  1:
 RMSU=  3.32D-06    CP:  1.00D+00 -3.00D+00 -3.00D+00 -3.00D+00  3.00D+00
                    CP:  2.01D+00
 E= -245.138023541362     Delta-E=        0.000000037297 Rises=F Damp=F
 DIIS: error= 7.46D-07 at cycle   7 NSaved=   6.
 NSaved= 6 IEnMin= 3 EnMin= -245.138023969036     IErMin= 6 ErrMin= 7.46D-07
 ErrMax= 7.46D-07  0.00D+00 EMaxC= 1.00D-01 BMatC= 3.45D-10 BMatP= 6.82D-10
 IDIUse=1 WtCom= 1.00D+00 WtEn= 0.00D+00
 Coeff-Com: -0.744D-01-0.553D+00 0.698D+00-0.489D+00 0.620D+00 0.798D+00
 Coeff:     -0.744D-01-0.553D+00 0.698D+00-0.489D+00 0.620D+00 0.798D+00
 Gap=     0.043 Goal=   None    Shift=    0.000
 Gap=     0.267 Goal=   None    Shift=    0.000
 RMSDP=4.33D-05 MaxDP=8.26D-04 DE= 3.73D-08 OVMax= 1.41D-03

 Cycle  20  Pass 1  IDiag  1:
 RMSU=  2.83D-07    CP:  1.00D+00 -3.00D+00 -3.00D+00 -3.00D+00  3.00D+00
                    CP:  2.47D+00  1.46D+00
 E= -245.138023536073     Delta-E=        0.000000005289 Rises=F Damp=F
 DIIS: error= 4.15D-07 at cycle   8 NSaved=   7.
 NSaved= 7 IEnMin= 3 EnMin= -245.138023969036     IErMin= 7 ErrMin= 4.15D-07
 ErrMax= 4.15D-07  0.00D+00 EMaxC= 1.00D-01 BMatC= 4.60D-11 BMatP= 3.45D-10
 IDIUse=1 WtCom= 1.00D+00 WtEn= 0.00D+00
 Coeff-Com:  0.240D+00 0.155D+00-0.209D+00-0.192D+00-0.239D+00 0.145D+00
 Coeff-Com:  0.110D+01
 Coeff:      0.240D+00 0.155D+00-0.209D+00-0.192D+00-0.239D+00 0.145D+00
 Coeff:      0.110D+01
 Gap=     0.043 Goal=   None    Shift=    0.000
 Gap=     0.267 Goal=   None    Shift=    0.000
 RMSDP=1.03D-05 MaxDP=1.97D-04 DE= 5.29D-09 OVMax= 3.35D-04

 Cycle  21  Pass 1  IDiag  1:
 RMSU=  7.21D-08    CP:  1.00D+00 -3.00D+00 -3.00D+00 -3.00D+00  3.00D+00
                    CP:  2.58D+00  1.57D+00  1.27D+00
 E= -245.138023535863     Delta-E=        0.000000000210 Rises=F Damp=F
 DIIS: error= 2.07D-07 at cycle   9 NSaved=   8.
 NSaved= 8 IEnMin= 3 EnMin= -245.138023969036     IErMin= 8 ErrMin= 2.07D-07
 ErrMax= 2.07D-07  0.00D+00 EMaxC= 1.00D-01 BMatC= 1.75D-11 BMatP= 4.60D-11
 IDIUse=1 WtCom= 1.00D+00 WtEn= 0.00D+00
 Coeff-Com:  0.788D-01 0.104D+00-0.172D+00 0.121D-01-0.848D-01 0.129D-01
 Coeff-Com:  0.491D+00 0.559D+00
 Coeff:      0.788D-01 0.104D+00-0.172D+00 0.121D-01-0.848D-01 0.129D-01
 Coeff:      0.491D+00 0.559D+00
 Gap=     0.043 Goal=   None    Shift=    0.000
 Gap=     0.267 Goal=   None    Shift=    0.000
 RMSDP=4.65D-07 MaxDP=8.86D-06 DE= 2.10D-10 OVMax= 1.51D-05

 Cycle  22  Pass 1  IDiag  1:
 RMSU=  3.16D-08    CP:  1.00D+00 -3.00D+00 -3.00D+00 -3.00D+00  3.00D+00
                    CP:  2.59D+00  1.57D+00  1.31D+00  7.75D-01
 E= -245.138023535866     Delta-E=       -0.000000000003 Rises=F Damp=F
 DIIS: error= 5.21D-08 at cycle  10 NSaved=   9.
 NSaved= 9 IEnMin= 3 EnMin= -245.138023969036     IErMin= 9 ErrMin= 5.21D-08
 ErrMax= 5.21D-08  0.00D+00 EMaxC= 1.00D-01 BMatC= 8.98D-13 BMatP= 1.75D-11
 IDIUse=1 WtCom= 1.00D+00 WtEn= 0.00D+00
 Coeff-Com: -0.218D-01-0.321D-02 0.124D-01 0.269D-01-0.114D-01-0.273D-01
 Coeff-Com: -0.335D-01 0.173D+00 0.885D+00
 Coeff:     -0.218D-01-0.321D-02 0.124D-01 0.269D-01-0.114D-01-0.273D-01
 Coeff:     -0.335D-01 0.173D+00 0.885D+00
 Gap=     0.043 Goal=   None    Shift=    0.000
 Gap=     0.267 Goal=   None    Shift=    0.000
 RMSDP=1.68D-07 MaxDP=3.16D-06 DE=-3.24D-12 OVMax= 5.46D-06

 Cycle  23  Pass 1  IDiag  1:
 RMSU=  7.82D-09    CP:  1.00D+00 -3.00D+00 -3.00D+00 -3.00D+00  3.00D+00
                    CP:  2.58D+00  1.57D+00  1.31D+00  8.54D-01  1.14D+00
 E= -245.138023535867     Delta-E=       -0.000000000000 Rises=F Damp=F
 DIIS: error= 1.41D-08 at cycle  11 NSaved=  10.
 NSaved=10 IEnMin= 3 EnMin= -245.138023969036     IErMin=10 ErrMin= 1.41D-08
 ErrMax= 1.41D-08  0.00D+00 EMaxC= 1.00D-01 BMatC= 9.10D-14 BMatP= 8.98D-13
 IDIUse=1 WtCom= 1.00D+00 WtEn= 0.00D+00
 Coeff-Com: -0.135D-01-0.702D-02 0.945D-02 0.134D-01 0.820D-02-0.874D-02
 Coeff-Com: -0.484D-01 0.358D-01 0.317D+00 0.694D+00
 Coeff:     -0.135D-01-0.702D-02 0.945D-02 0.134D-01 0.820D-02-0.874D-02
 Coeff:     -0.484D-01 0.358D-01 0.317D+00 0.694D+00
 Gap=     0.043 Goal=   None    Shift=    0.000
 Gap=     0.267 Goal=   None    Shift=    0.000
 RMSDP=1.80D-07 MaxDP=3.45D-06 DE=-2.84D-13 OVMax= 5.84D-06

 Cycle  24  Pass 1  IDiag  1:
 RMSU=  2.23D-09    CP:  1.00D+00 -3.00D+00 -3.00D+00 -3.00D+00  3.00D+00
                    CP:  2.59D+00  1.57D+00  1.32D+00  8.44D-01  1.26D+00
                    CP:  1.00D+00
 E= -245.138023535867     Delta-E=       -0.000000000000 Rises=F Damp=F
 DIIS: error= 1.08D-08 at cycle  12 NSaved=  11.
 NSaved=11 IEnMin= 3 EnMin= -245.138023969036     IErMin=11 ErrMin= 1.08D-08
 ErrMax= 1.08D-08  0.00D+00 EMaxC= 1.00D-01 BMatC= 6.13D-14 BMatP= 9.10D-14
 IDIUse=1 WtCom= 1.00D+00 WtEn= 0.00D+00
 Coeff-Com:  0.695D-03-0.139D-02 0.230D-02-0.219D-02-0.178D-03 0.305D-03
 Coeff-Com: -0.933D-02-0.101D-01-0.336D-01 0.377D+00 0.677D+00
 Coeff:      0.695D-03-0.139D-02 0.230D-02-0.219D-02-0.178D-03 0.305D-03
 Coeff:     -0.933D-02-0.101D-01-0.336D-01 0.377D+00 0.677D+00
 Gap=     0.043 Goal=   None    Shift=    0.000
 Gap=     0.267 Goal=   None    Shift=    0.000
 RMSDP=3.01D-08 MaxDP=5.90D-07 DE=-5.68D-14 OVMax= 9.79D-07

 Cycle  25  Pass 1  IDiag  1:
 RMSU=  9.22D-10    CP:  1.00D+00 -3.00D+00 -3.00D+00 -3.00D+00  3.00D+00
                    CP:  2.59D+00  1.57D+00  1.32D+00  8.62D-01  1.24D+00
                    CP:  1.09D+00  7.72D-01
 E= -245.138023535867     Delta-E=        0.000000000000 Rises=F Damp=F
 DIIS: error= 2.22D-09 at cycle  13 NSaved=  12.
 NSaved=12 IEnMin= 3 EnMin= -245.138023969036     IErMin=12 ErrMin= 2.22D-09
 ErrMax= 2.22D-09  0.00D+00 EMaxC= 1.00D-01 BMatC= 2.16D-15 BMatP= 6.13D-14
 IDIUse=1 WtCom= 1.00D+00 WtEn= 0.00D+00
 Coeff-Com:  0.323D-03-0.448D-03 0.487D-03-0.677D-03 0.489D-03 0.581D-03
 Coeff-Com: -0.998D-03-0.573D-02-0.241D-01 0.580D-01 0.214D+00 0.758D+00
 Coeff:      0.323D-03-0.448D-03 0.487D-03-0.677D-03 0.489D-03 0.581D-03
 Coeff:     -0.998D-03-0.573D-02-0.241D-01 0.580D-01 0.214D+00 0.758D+00
 Gap=     0.043 Goal=   None    Shift=    0.000
 Gap=     0.267 Goal=   None    Shift=    0.000
 RMSDP=4.86D-08 MaxDP=9.22D-07 DE= 2.27D-13 OVMax= 1.58D-06

 Cycle  26  Pass 1  IDiag  1:
 RMSU=  3.24D-10    CP:  1.00D+00 -3.00D+00 -3.00D+00 -3.00D+00  3.00D+00
                    CP:  2.59D+00  1.57D+00  1.32D+00  8.60D-01  1.25D+00
                    CP:  1.12D+00  8.36D-01  1.21D+00
 E= -245.138023535866     Delta-E=        0.000000000001 Rises=F Damp=F
 DIIS: error= 8.01D-10 at cycle  14 NSaved=  13.
 NSaved=13 IEnMin= 3 EnMin= -245.138023969036     IErMin=13 ErrMin= 8.01D-10
 ErrMax= 8.01D-10  0.00D+00 EMaxC= 1.00D-01 BMatC= 1.32D-16 BMatP= 2.16D-15
 IDIUse=1 WtCom= 1.00D+00 WtEn= 0.00D+00
 Coeff-Com:  0.158D-03-0.872D-04 0.209D-03-0.394D-03-0.133D-03 0.272D-03
 Coeff-Com:  0.146D-02-0.202D-02-0.849D-02-0.223D-01 0.327D-01 0.268D+00
 Coeff-Com:  0.731D+00
 Coeff:      0.158D-03-0.872D-04 0.209D-03-0.394D-03-0.133D-03 0.272D-03
 Coeff:      0.146D-02-0.202D-02-0.849D-02-0.223D-01 0.327D-01 0.268D+00
 Coeff:      0.731D+00
 Gap=     0.043 Goal=   None    Shift=    0.000
 Gap=     0.267 Goal=   None    Shift=    0.000
 RMSDP=1.06D-08 MaxDP=2.07D-07 DE= 6.25D-13 OVMax= 3.45D-07

 Cycle  27  Pass 1  IDiag  1:
 RMSU=  1.06D-10    CP:  1.00D+00 -3.00D+00 -3.00D+00 -3.00D+00  3.00D+00
                    CP:  2.59D+00  1.57D+00  1.32D+00  8.60D-01  1.25D+00
                    CP:  1.13D+00  8.71D-01  1.43D+00  1.28D+00
 E= -245.138023535866     Delta-E=       -0.000000000000 Rises=F Damp=F
 DIIS: error= 3.33D-10 at cycle  15 NSaved=  14.
 NSaved=14 IEnMin= 3 EnMin= -245.138023969036     IErMin=14 ErrMin= 3.33D-10
 ErrMax= 3.33D-10  0.00D+00 EMaxC= 1.00D-01 BMatC= 3.32D-17 BMatP= 1.32D-16
 IDIUse=1 WtCom= 1.00D+00 WtEn= 0.00D+00
 Coeff-Com: -0.113D-03-0.298D-04 0.737D-04 0.609D-04 0.135D-04-0.226D-04
 Coeff-Com:  0.281D-03 0.168D-03 0.229D-02-0.123D-01-0.162D-01-0.677D-01
 Coeff-Com:  0.136D+00 0.958D+00
 Coeff:     -0.113D-03-0.298D-04 0.737D-04 0.609D-04 0.135D-04-0.226D-04
 Coeff:      0.281D-03 0.168D-03 0.229D-02-0.123D-01-0.162D-01-0.677D-01
 Coeff:      0.136D+00 0.958D+00
 Gap=     0.043 Goal=   None    Shift=    0.000
 Gap=     0.267 Goal=   None    Shift=    0.000
 RMSDP=3.73D-09 MaxDP=7.50D-08 DE=-3.98D-13 OVMax= 1.22D-07

 SCF Done:  E(UB3LYP) =  -245.138023536     A.U. after   27 cycles
            NFock= 27  Conv=0.37D-08     -V/T= 2.0075
 <Sx>= 0.0000 <Sy>= 0.0000 <Sz>= 0.5000 <S**2>= 0.7527 S= 0.5014
 <L.S>=  0.00000000000    
 KE= 2.433058887028D+02 PE=-9.567763335677D+02 EE= 2.756634087500D+02
 Annihilation of the first spin contaminant:
 S**2 before annihilation     0.7527,   after     0.7500
 Leave Link  502 at Thu Mar 28 08:44:17 2024, MaxMem=  1073741824 cpu:              52.7 elap:               6.9
 (Enter /apps/versions/2023.01/rocky8/x86_64/generic/software/Gaussian/16.B.01/g16/l601.exe)
 Copying SCF densities to generalized density rwf, IOpCl= 1 IROHF=0.

 **********************************************************************

            Population analysis using the SCF Density.

 **********************************************************************

 Orbital symmetries:
 Alpha Orbitals:
       Occupied  (A) (A) (A) (A) (A) (A) (A) (A) (A) (A) (A) (A)
                 (A) (A) (A) (A) (A) (A) (A) (A) (A)
       Virtual   (A) (A) (A) (A) (A) (A) (A) (A) (A) (A) (A) (A)
                 (A) (A) (A) (A) (A) (A) (A) (A) (A) (A) (A) (A)
                 (A) (A) (A) (A) (A) (A) (A) (A) (A) (A) (A) (A)
                 (A) (A) (A) (A) (A) (A) (A) (A) (A) (A) (A) (A)
                 (A) (A) (A) (A) (A) (A) (A) (A) (A) (A) (A) (A)
                 (A) (A) (A) (A) (A) (A) (A) (A) (A) (A)
 Beta  Orbitals:
       Occupied  (A) (A) (A) (A) (A) (A) (A) (A) (A) (A) (A) (A)
                 (A) (A) (A) (A) (A) (A) (A) (A)
       Virtual   (A) (A) (A) (A) (A) (A) (A) (A) (A) (A) (A) (A)
                 (A) (A) (A) (A) (A) (A) (A) (A) (A) (A) (A) (A)
                 (A) (A) (A) (A) (A) (A) (A) (A) (A) (A) (A) (A)
                 (A) (A) (A) (A) (A) (A) (A) (A) (A) (A) (A) (A)
                 (A) (A) (A) (A) (A) (A) (A) (A) (A) (A) (A) (A)
                 (A) (A) (A) (A) (A) (A) (A) (A) (A) (A) (A)
 The electronic state is 2-A.
 Alpha  occ. eigenvalues --  -14.29949 -14.29610 -14.29512 -10.19701 -10.17366
 Alpha  occ. eigenvalues --   -0.94169  -0.84993  -0.83207  -0.67724  -0.58554
 Alpha  occ. eigenvalues --   -0.53353  -0.50484  -0.44663  -0.43781  -0.42529
 Alpha  occ. eigenvalues --   -0.40505  -0.37333  -0.35737  -0.22544  -0.21104
 Alpha  occ. eigenvalues --    0.02797
 Alpha virt. eigenvalues --    0.07107   0.10990   0.11624   0.13724   0.15927
 Alpha virt. eigenvalues --    0.18249   0.19312   0.19537   0.23907   0.32214
 Alpha virt. eigenvalues --    0.42091   0.42687   0.57366   0.58064   0.58157
 Alpha virt. eigenvalues --    0.63225   0.63277   0.64367   0.70015   0.72596
 Alpha virt. eigenvalues --    0.75671   0.78610   0.79952   0.82657   0.85414
 Alpha virt. eigenvalues --    0.90375   0.90701   0.91260   0.91473   0.92936
 Alpha virt. eigenvalues --    0.95556   0.96521   1.01097   1.17314   1.22141
 Alpha virt. eigenvalues --    1.23080   1.37497   1.38267   1.38488   1.46914
 Alpha virt. eigenvalues --    1.51487   1.66173   1.68089   1.70030   1.70719
 Alpha virt. eigenvalues --    1.88560   1.92007   2.02788   2.03609   2.08374
 Alpha virt. eigenvalues --    2.13049   2.15614   2.22012   2.27341   2.32927
 Alpha virt. eigenvalues --    2.35596   2.46164   2.53742   2.55394   2.60671
 Alpha virt. eigenvalues --    2.65111   2.67874   2.73725   3.14578   3.18645
 Alpha virt. eigenvalues --    3.85990   3.91932   4.02549   4.24310   4.40272
  Beta  occ. eigenvalues --  -14.29743 -14.29394 -14.29250 -10.19719 -10.16061
  Beta  occ. eigenvalues --   -0.92996  -0.84407  -0.82554  -0.67328  -0.57337
  Beta  occ. eigenvalues --   -0.53005  -0.50112  -0.44476  -0.43533  -0.41731
  Beta  occ. eigenvalues --   -0.40246  -0.37180  -0.32321  -0.20535  -0.19363
  Beta virt. eigenvalues --    0.07320   0.11177   0.11743   0.13848   0.14561
  Beta virt. eigenvalues --    0.16129   0.18420   0.19747   0.20729   0.23965
  Beta virt. eigenvalues --    0.35284   0.42499   0.43131   0.57938   0.58417
  Beta virt. eigenvalues --    0.58919   0.63823   0.65024   0.65913   0.71179
  Beta virt. eigenvalues --    0.73041   0.76701   0.80269   0.80398   0.82920
  Beta virt. eigenvalues --    0.86833   0.90514   0.91508   0.91584   0.91639
  Beta virt. eigenvalues --    0.93174   0.95687   0.96757   1.01302   1.18080
  Beta virt. eigenvalues --    1.22379   1.23396   1.38521   1.39371   1.40694
  Beta virt. eigenvalues --    1.47532   1.52417   1.66746   1.68595   1.70876
  Beta virt. eigenvalues --    1.71537   1.89805   1.93698   2.03264   2.05034
  Beta virt. eigenvalues --    2.08604   2.13438   2.16041   2.22383   2.28324
  Beta virt. eigenvalues --    2.33311   2.37197   2.46670   2.55736   2.57246
  Beta virt. eigenvalues --    2.63662   2.65792   2.68779   2.75587   3.15231
  Beta virt. eigenvalues --    3.19260   3.86752   3.92463   4.03024   4.25324
  Beta virt. eigenvalues --    4.41979
          Condensed to atoms (all electrons):
               1          2          3          4          5          6
     1  C    4.934748   0.344082   0.379165   0.345414   0.371045  -0.038386
     2  H    0.344082   0.694440  -0.028912  -0.083288  -0.070299   0.003591
     3  H    0.379165  -0.028912   0.565383  -0.029350  -0.025769  -0.006645
     4  H    0.345414  -0.083288  -0.029350   0.692853  -0.069231   0.003202
     5  N    0.371045  -0.070299  -0.025769  -0.069231   6.955996   0.328042
     6  H   -0.038386   0.003591  -0.006645   0.003202   0.328042   0.433591
     7  C   -0.052313   0.009745   0.002889   0.009643   0.251008  -0.022467
     8  N   -0.003970  -0.001438   0.000292  -0.001362  -0.055382   0.005013
     9  H    0.007779   0.001450  -0.000198   0.001254  -0.009425   0.000067
    10  H   -0.000048   0.000034  -0.000003  -0.000009   0.004716  -0.000163
    11  N    0.004727  -0.000301  -0.000134  -0.000300  -0.053590  -0.006952
    12  H   -0.000017   0.000015  -0.000017   0.000005  -0.006284   0.005311
    13  H   -0.000160   0.000005   0.000004   0.000002   0.004316  -0.000059
               7          8          9         10         11         12
     1  C   -0.052313  -0.003970   0.007779  -0.000048   0.004727  -0.000017
     2  H    0.009745  -0.001438   0.001450   0.000034  -0.000301   0.000015
     3  H    0.002889   0.000292  -0.000198  -0.000003  -0.000134  -0.000017
     4  H    0.009643  -0.001362   0.001254  -0.000009  -0.000300   0.000005
     5  N    0.251008  -0.055382  -0.009425   0.004716  -0.053590  -0.006284
     6  H   -0.022467   0.005013   0.000067  -0.000163  -0.006952   0.005311
     7  C    4.834880   0.207708  -0.017155  -0.017738   0.189655  -0.017522
     8  N    0.207708   7.083617   0.325058   0.327842  -0.057418   0.004941
     9  H   -0.017155   0.325058   0.396064  -0.028226   0.004896  -0.000189
    10  H   -0.017738   0.327842  -0.028226   0.408288  -0.006896  -0.000046
    11  N    0.189655  -0.057418   0.004896  -0.006896   7.106236   0.326015
    12  H   -0.017522   0.004941  -0.000189  -0.000046   0.326015   0.410372
    13  H   -0.015646  -0.005862  -0.000070   0.004599   0.326013  -0.028703
              13
     1  C   -0.000160
     2  H    0.000005
     3  H    0.000004
     4  H    0.000002
     5  N    0.004316
     6  H   -0.000059
     7  C   -0.015646
     8  N   -0.005862
     9  H   -0.000070
    10  H    0.004599
    11  N    0.326013
    12  H   -0.028703
    13  H    0.408316
          Atomic-Atomic Spin Densities.
               1          2          3          4          5          6
     1  C    0.030311  -0.034741   0.000864  -0.033213   0.049131  -0.000274
     2  H   -0.034741   0.105071   0.000196  -0.033998  -0.018499   0.000236
     3  H    0.000864   0.000196  -0.001682  -0.000472  -0.000283   0.000217
     4  H   -0.033213  -0.033998  -0.000472   0.103615  -0.017622  -0.000190
     5  N    0.049131  -0.018499  -0.000283  -0.017622   0.211543   0.000565
     6  H   -0.000274   0.000236   0.000217  -0.000190   0.000565  -0.005654
     7  C   -0.027127   0.014013   0.000206   0.013982  -0.193824  -0.001848
     8  N    0.005777  -0.004933  -0.000018  -0.004937   0.016339  -0.000021
     9  H   -0.000111   0.000124   0.000003  -0.000111   0.000545  -0.000004
    10  H    0.000000   0.000021   0.000000  -0.000022  -0.000053   0.000002
    11  N    0.000784  -0.000314  -0.000003  -0.000314   0.016894   0.000531
    12  H   -0.000003   0.000005   0.000000  -0.000005   0.000540  -0.000073
    13  H    0.000001   0.000002  -0.000000  -0.000002  -0.000042  -0.000001
               7          8          9         10         11         12
     1  C   -0.027127   0.005777  -0.000111   0.000000   0.000784  -0.000003
     2  H    0.014013  -0.004933   0.000124   0.000021  -0.000314   0.000005
     3  H    0.000206  -0.000018   0.000003   0.000000  -0.000003   0.000000
     4  H    0.013982  -0.004937  -0.000111  -0.000022  -0.000314  -0.000005
     5  N   -0.193824   0.016339   0.000545  -0.000053   0.016894   0.000540
     6  H   -0.001848  -0.000021  -0.000004   0.000002   0.000531  -0.000073
     7  C    1.387072  -0.224258  -0.001591  -0.001760  -0.217192  -0.001774
     8  N   -0.224258   0.287901   0.000045   0.000053   0.020986  -0.000045
     9  H   -0.001591   0.000045  -0.006503  -0.000072  -0.000064   0.000002
    10  H   -0.001760   0.000053  -0.000072  -0.006487   0.000516  -0.000002
    11  N   -0.217192   0.020986  -0.000064   0.000516   0.262376   0.000370
    12  H   -0.001774  -0.000045   0.000002  -0.000002   0.000370  -0.005838
    13  H   -0.001716   0.000485  -0.000002  -0.000067   0.000265  -0.000089
              13
     1  C    0.000001
     2  H    0.000002
     3  H   -0.000000
     4  H   -0.000002
     5  N   -0.000042
     6  H   -0.000001
     7  C   -0.001716
     8  N    0.000485
     9  H   -0.000002
    10  H   -0.000067
    11  N    0.000265
    12  H   -0.000089
    13  H   -0.005758
 Mulliken charges and spin densities:
               1          2
     1  C   -0.292066  -0.008600
     2  H    0.130877   0.027184
     3  H    0.143294  -0.000971
     4  H    0.131165   0.026712
     5  N   -0.625144   0.065233
     6  H    0.295854  -0.006513
     7  C    0.637311   0.744183
     8  N   -0.829041   0.097375
     9  H    0.318693  -0.007738
    10  H    0.307648  -0.007868
    11  N   -0.831954   0.084836
    12  H    0.306118  -0.006911
    13  H    0.307245  -0.006923
 Sum of Mulliken charges =  -0.00000   1.00000
 Mulliken charges and spin densities with hydrogens summed into heavy atoms:
               1          2
     1  C    0.113269   0.044325
     5  N   -0.329290   0.058720
     7  C    0.637311   0.744183
     8  N   -0.202700   0.081769
    11  N   -0.218591   0.071002
 Electronic spatial extent (au):  <R**2>=            462.4937
 Charge=             -0.0000 electrons
 Dipole moment (field-independent basis, Debye):
    X=              0.5000    Y=             -0.2863    Z=             -0.0031  Tot=              0.5762
 Quadrupole moment (field-independent basis, Debye-Ang):
   XX=            -25.2176   YY=            -24.0888   ZZ=            -35.6450
   XY=              0.8252   XZ=              0.0076   YZ=             -0.0016
 Traceless Quadrupole moment (field-independent basis, Debye-Ang):
   XX=              3.0996   YY=              4.2283   ZZ=             -7.3279
   XY=              0.8252   XZ=              0.0076   YZ=             -0.0016
 Octapole moment (field-independent basis, Debye-Ang**2):
  XXX=             18.2153  YYY=             -3.6545  ZZZ=              0.0019  XYY=              5.0613
  XXY=              0.7377  XXZ=             -0.0152  XZZ=             -0.9241  YZZ=              0.0067
  YYZ=              0.0090  XYZ=             -0.0036
 Hexadecapole moment (field-independent basis, Debye-Ang**3):
 XXXX=           -338.2582 YYYY=           -126.7410 ZZZZ=            -41.5556 XXXY=             11.8496
 XXXZ=              0.0725 YYYX=             -0.0833 YYYZ=             -0.0039 ZZZX=              0.0070
 ZZZY=             -0.0068 XXYY=            -76.5823 XXZZ=            -77.2581 YYZZ=            -38.8926
 XXYZ=              0.0024 YYXZ=              0.0217 ZZXY=             -0.0518
 N-N= 1.926690125792D+02 E-N=-9.567763335123D+02  KE= 2.433058887028D+02
                          Isotropic Fermi Contact Couplings
        Atom                 a.u.       MegaHertz       Gauss      10(-4) cm-1
     1  C(13)             -0.00635      -7.13505      -2.54596      -2.38000
     2  H(1)               0.00546      24.39653       8.70529       8.13781
     3  H(1)              -0.00036      -1.60310      -0.57203      -0.53474
     4  H(1)               0.00546      24.41121       8.71053       8.14270
     5  N(14)             -0.00099      -0.32146      -0.11470      -0.10723
     6  H(1)              -0.00261     -11.67199      -4.16486      -3.89336
     7  C(13)              0.06385      71.77415      25.61080      23.94128
     8  N(14)              0.00354       1.14447       0.40838       0.38175
     9  H(1)              -0.00294     -13.15959      -4.69567      -4.38957
    10  H(1)              -0.00313     -13.96927      -4.98458      -4.65965
    11  N(14)              0.00015       0.04944       0.01764       0.01649
    12  H(1)              -0.00274     -12.25127      -4.37156      -4.08658
    13  H(1)              -0.00276     -12.33006      -4.39967      -4.11286
 --------------------------------------------------------
       Center         ----  Spin Dipole Couplings  ----
                      3XX-RR        3YY-RR        3ZZ-RR
 --------------------------------------------------------
     1   Atom        0.009544     -0.008211     -0.001333
     2   Atom        0.007555     -0.002779     -0.004775
     3   Atom        0.009003     -0.005449     -0.003554
     4   Atom        0.007550     -0.002791     -0.004759
     5   Atom       -0.135903     -0.152468      0.288371
     6   Atom       -0.013823      0.023489     -0.009666
     7   Atom       -0.537416     -0.537415      1.074831
     8   Atom       -0.184585     -0.159860      0.344445
     9   Atom        0.006390      0.003164     -0.009554
    10   Atom        0.009634     -0.000894     -0.008740
    11   Atom       -0.141269     -0.153275      0.294544
    12   Atom       -0.015792      0.023935     -0.008143
    13   Atom        0.022216     -0.014015     -0.008200
 --------------------------------------------------------
                        XY            XZ            YZ
 --------------------------------------------------------
     1   Atom       -0.003217     -0.000236     -0.000052
     2   Atom       -0.004563     -0.004593      0.001378
     3   Atom        0.002151      0.000030      0.000019
     4   Atom       -0.004617      0.004553     -0.001386
     5   Atom        0.009346     -0.000612     -0.002830
     6   Atom        0.006894     -0.000025      0.000344
     7   Atom       -0.000340      0.000383      0.000255
     8   Atom        0.001120      0.001903      0.001383
     9   Atom       -0.023213      0.000153     -0.000049
    10   Atom        0.023369     -0.000278     -0.000145
    11   Atom       -0.012086      0.002796     -0.001811
    12   Atom       -0.008527      0.000076      0.000338
    13   Atom        0.011462     -0.000249     -0.000211
 --------------------------------------------------------


 ---------------------------------------------------------------------------------
              Anisotropic Spin Dipole Couplings in Principal Axis System
 ---------------------------------------------------------------------------------

       Atom             a.u.   MegaHertz   Gauss  10(-4) cm-1        Axes

              Baa    -0.0088    -1.178    -0.420    -0.393  0.1731  0.9848  0.0123
     1 C(13)  Bbb    -0.0013    -0.179    -0.064    -0.060  0.0171 -0.0155  0.9997
              Bcc     0.0101     1.357     0.484     0.453  0.9848 -0.1728 -0.0195
 
              Baa    -0.0063    -3.365    -1.201    -1.122  0.3324  0.0624  0.9411
     2 H(1)   Bbb    -0.0044    -2.374    -0.847    -0.792  0.2941  0.9412 -0.1663
              Bcc     0.0108     5.738     2.048     1.914  0.8961 -0.3321 -0.2945
 
              Baa    -0.0058    -3.074    -1.097    -1.025 -0.1441  0.9895 -0.0066
     3 H(1)   Bbb    -0.0036    -1.896    -0.677    -0.633 -0.0035  0.0062  1.0000
              Bcc     0.0093     4.971     1.774     1.658  0.9896  0.1442  0.0026
 
              Baa    -0.0063    -3.345    -1.193    -1.116 -0.3320 -0.0658  0.9410
     4 H(1)   Bbb    -0.0045    -2.399    -0.856    -0.800  0.2960  0.9399  0.1701
              Bcc     0.0108     5.743     2.049     1.916  0.8956 -0.3350  0.2926
 
              Baa    -0.1567    -6.043    -2.156    -2.016 -0.4100  0.9121  0.0052
     5 N(14)  Bbb    -0.1317    -5.080    -1.813    -1.694  0.9121  0.4100  0.0041
              Bcc     0.2884    11.123     3.969     3.710 -0.0016 -0.0065  1.0000
 
              Baa    -0.0151    -8.034    -2.867    -2.680  0.9842 -0.1762  0.0158
     6 H(1)   Bbb    -0.0097    -5.158    -1.841    -1.721 -0.0173 -0.0068  0.9998
              Bcc     0.0247    13.192     4.707     4.400  0.1760  0.9843  0.0097
 
              Baa    -0.5378   -72.162   -25.749   -24.071  0.7080  0.7062 -0.0003
     7 C(13)  Bbb    -0.5371   -72.070   -25.716   -24.040 -0.7062  0.7080  0.0001
              Bcc     1.0748   144.232    51.466    48.111  0.0002  0.0002  1.0000
 
              Baa    -0.1846    -7.121    -2.541    -2.375  0.9990 -0.0449 -0.0035
     8 N(14)  Bbb    -0.1598    -6.164    -2.199    -2.056  0.0449  0.9990 -0.0029
              Bcc     0.3445    13.285     4.740     4.431  0.0036  0.0028  1.0000
 
              Baa    -0.0185    -9.867    -3.521    -3.291  0.6822  0.7312 -0.0077
     9 H(1)   Bbb    -0.0096    -5.098    -1.819    -1.700  0.0024  0.0083  1.0000
              Bcc     0.0280    14.964     5.340     4.992  0.7312 -0.6821  0.0039
 
              Baa    -0.0196   -10.450    -3.729    -3.486 -0.6246  0.7809 -0.0056
    10 H(1)   Bbb    -0.0087    -4.664    -1.664    -1.556  0.0030  0.0096  0.9999
              Bcc     0.0283    15.114     5.393     5.041  0.7809  0.6246 -0.0083
 
              Baa    -0.1608    -6.200    -2.212    -2.068  0.5268  0.8500  0.0001
    11 N(14)  Bbb    -0.1338    -5.160    -1.841    -1.721  0.8499 -0.5268 -0.0078
              Bcc     0.2946    11.361     4.054     3.790  0.0065 -0.0042  1.0000
 
              Baa    -0.0175    -9.362    -3.341    -3.123  0.9794  0.2014 -0.0151
    12 H(1)   Bbb    -0.0081    -4.345    -1.550    -1.449  0.0167 -0.0061  0.9998
              Bcc     0.0257    13.707     4.891     4.572 -0.2013  0.9795  0.0093
 
              Baa    -0.0173    -9.251    -3.301    -3.086 -0.2782  0.9604  0.0146
    13 H(1)   Bbb    -0.0082    -4.376    -1.561    -1.460  0.0125 -0.0115  0.9999
              Bcc     0.0255    13.627     4.862     4.545  0.9604  0.2784 -0.0088
 

 ---------------------------------------------------------------------------------

 No NMR shielding tensors so no spin-rotation constants.
 Leave Link  601 at Thu Mar 28 08:44:18 2024, MaxMem=  1073741824 cpu:               0.8 elap:               0.2
 (Enter /apps/versions/2023.01/rocky8/x86_64/generic/software/Gaussian/16.B.01/g16/l701.exe)
 ... and contract with generalized density number  0.
 Compute integral first derivatives.
 Leave Link  701 at Thu Mar 28 08:44:18 2024, MaxMem=  1073741824 cpu:               0.4 elap:               0.2
 (Enter /apps/versions/2023.01/rocky8/x86_64/generic/software/Gaussian/16.B.01/g16/l702.exe)
 L702 exits ... SP integral derivatives will be done elsewhere.
 Leave Link  702 at Thu Mar 28 08:44:18 2024, MaxMem=  1073741824 cpu:               0.1 elap:               0.1
 (Enter /apps/versions/2023.01/rocky8/x86_64/generic/software/Gaussian/16.B.01/g16/l703.exe)
 Integral derivatives from FoFJK, PRISM(SPDF).
 Compute integral first derivatives, UseDBF=F ICtDFT=           0.
 Calling FoFJK, ICntrl=      2127 FMM=F ISym2X=0 I1Cent= 0 IOpClX= 1 NMat=1 NMatS=1 NMatT=0.
 FoFJK:  IHMeth= 1 ICntrl=    2127 DoSepK=F KAlg= 0 I1Cent=           0 FoldK=F
 IRaf=         0 NMat=       1 IRICut=       1 DoRegI=T DoRafI=F ISym2E= 0 IDoP0=0 IntGTp=1.
 FoFCou: FMM=F IPFlag=           0 FMFlag=      100000 FMFlg1=         800
         NFxFlg=           0 DoJE=F BraDBF=F KetDBF=F FulRan=T
         wScrn=  0.000000 ICntrl=      2127 IOpCl=  1 I1Cent=           0 NGrid=           0
         NMat0=    1 NMatS0=      1 NMatT0=    0 NMatD0=    1 NMtDS0=    0 NMtDT0=    0
 Symmetry not used in FoFCou.
 Leave Link  703 at Thu Mar 28 08:44:19 2024, MaxMem=  1073741824 cpu:               4.3 elap:               0.6
 (Enter /apps/versions/2023.01/rocky8/x86_64/generic/software/Gaussian/16.B.01/g16/l716.exe)
 Dipole        = 1.96721414D-01-1.12648303D-01-1.21803126D-03
 ***** Axes restored to original set *****
 -------------------------------------------------------------------
 Center     Atomic                   Forces (Hartrees/Bohr)
 Number     Number              X              Y              Z
 -------------------------------------------------------------------
      1        6           0.033425104    0.016351778   -0.002915304
      2        1          -0.010043132   -0.004253690    0.005166763
      3        1          -0.001460624    0.000177459    0.000557850
      4        1          -0.011829148   -0.001441876   -0.000777713
      5        7          -0.000899822   -0.079285576   -0.038183673
      6        1          -0.007516694    0.000876161    0.002632464
      7        6          -0.000142269   -0.009582624   -0.004141472
      8        7          -0.078712802    0.030671830    0.040182456
      9        1           0.006154171    0.006190000    0.000994446
     10        1          -0.000713470   -0.007604575   -0.003620479
     11        7           0.076537044    0.051367947    0.000511230
     12        1          -0.006426221    0.004073872    0.003901124
     13        1           0.001627862   -0.007540707   -0.004307693
 -------------------------------------------------------------------
 Cartesian Forces:  Max     0.079285576 RMS     0.026384635
 Leave Link  716 at Thu Mar 28 08:44:19 2024, MaxMem=  1073741824 cpu:               0.1 elap:               0.1
 (Enter /apps/versions/2023.01/rocky8/x86_64/generic/software/Gaussian/16.B.01/g16/l103.exe)

 GradGradGradGradGradGradGradGradGradGradGradGradGradGradGradGradGradGrad
 Berny optimization.
 FormGI is forming the generalized inverse of G from B-inverse, IUseBI=4.
 Internal  Forces:  Max     0.087348111 RMS     0.021309652
 Search for a local minimum.
 Step number   1 out of a maximum of  100
 All quantities printed in internal units (Hartrees-Bohrs-Radians)
 RMS Force = .21310D-01 SwitMx=.10000D-02 MixMth= 1
 Mixed Optimization -- RFO/linear search
 Second derivative matrix not updated -- first step.
 ITU=  0
     Eigenvalues ---    0.00876   0.01513   0.02471   0.02518   0.02532
     Eigenvalues ---    0.02532   0.02553   0.02553   0.07481   0.07800
     Eigenvalues ---    0.16000   0.16000   0.16000   0.16000   0.16000
     Eigenvalues ---    0.16000   0.16000   0.16000   0.22000   0.25000
     Eigenvalues ---    0.25000   0.34408   0.34501   0.34504   0.36757
     Eigenvalues ---    0.45576   0.45627   0.45639   0.45727   0.45765
     Eigenvalues ---    0.56969   0.58006   0.58356
 RFO step:  Lambda=-3.69855747D-02 EMin= 8.76136647D-03
 Linear search not attempted -- first point.
 Iteration  1 RMS(Cart)=  0.06668091 RMS(Int)=  0.00044184
 Iteration  2 RMS(Cart)=  0.00042388 RMS(Int)=  0.00017550
 Iteration  3 RMS(Cart)=  0.00000006 RMS(Int)=  0.00017550
 ITry= 1 IFail=0 DXMaxC= 1.57D-01 DCOld= 1.00D+10 DXMaxT= 3.00D-01 DXLimC= 3.00D+00 Rises=F
 Variable       Old X    -DE/DX   Delta X   Delta X   Delta X     New X
                                 (Linear)    (Quad)   (Total)
    R1        2.06489   0.00871   0.00000   0.02280   0.02280   2.08769
    R2        2.06648  -0.00084   0.00000  -0.00220  -0.00220   2.06428
    R3        2.06493   0.00859   0.00000   0.02248   0.02248   2.08741
    R4        2.76214  -0.01473   0.00000  -0.03641  -0.03641   2.72573
    R5        1.91312  -0.00782   0.00000  -0.01587  -0.01587   1.89725
    R6        2.53423   0.07545   0.00000   0.12437   0.12437   2.65860
    R7        2.52266   0.08735   0.00000   0.14076   0.14076   2.66342
    R8        2.52554   0.08626   0.00000   0.13979   0.13979   2.66533
    R9        1.91140  -0.00848   0.00000  -0.01715  -0.01715   1.89425
   R10        1.91097  -0.00841   0.00000  -0.01700  -0.01700   1.89397
   R11        1.91241  -0.00838   0.00000  -0.01699  -0.01699   1.89541
   R12        1.91254  -0.00864   0.00000  -0.01751  -0.01751   1.89503
    A1        1.89706  -0.00353   0.00000  -0.01679  -0.01692   1.88014
    A2        1.95051  -0.01012   0.00000  -0.05334  -0.05414   1.89638
    A3        1.91425   0.00898   0.00000   0.04511   0.04459   1.95885
    A4        1.89663  -0.00357   0.00000  -0.01716  -0.01729   1.87934
    A5        1.88965  -0.00070   0.00000  -0.00254  -0.00267   1.88698
    A6        1.91459   0.00894   0.00000   0.04482   0.04431   1.95890
    A7        2.05659  -0.00169   0.00000  -0.00855  -0.00855   2.04804
    A8        2.17290   0.00004   0.00000   0.00017   0.00017   2.17307
    A9        2.05369   0.00165   0.00000   0.00838   0.00838   2.06207
   A10        2.12790  -0.00131   0.00000  -0.00457  -0.00457   2.12333
   A11        2.08505  -0.00058   0.00000  -0.00201  -0.00201   2.08304
   A12        2.07023   0.00189   0.00000   0.00657   0.00657   2.07681
   A13        2.11616   0.00239   0.00000   0.01212   0.01212   2.12829
   A14        2.12613  -0.00038   0.00000  -0.00194  -0.00194   2.12419
   A15        2.04089  -0.00201   0.00000  -0.01018  -0.01018   2.03071
   A16        2.12629   0.00095   0.00000   0.00484   0.00484   2.13113
   A17        2.11886   0.00129   0.00000   0.00657   0.00657   2.12543
   A18        2.03804  -0.00225   0.00000  -0.01141  -0.01141   2.02663
    D1        2.06226   0.00048   0.00000   0.00505   0.00479   2.06705
    D2       -1.08085   0.00043   0.00000   0.00400   0.00375  -1.07710
    D3       -0.00522   0.00004   0.00000   0.00108   0.00108  -0.00414
    D4        3.13486  -0.00002   0.00000   0.00004   0.00003   3.13489
    D5       -2.07237  -0.00033   0.00000  -0.00226  -0.00201  -2.07438
    D6        1.06771  -0.00039   0.00000  -0.00331  -0.00306   1.06465
    D7        0.00113  -0.00007   0.00000  -0.00113  -0.00112   0.00000
    D8       -3.14055   0.00006   0.00000   0.00109   0.00108  -3.13947
    D9        3.14120  -0.00013   0.00000  -0.00219  -0.00219   3.13901
   D10       -0.00048   0.00001   0.00000   0.00002   0.00002  -0.00046
   D11        0.00055   0.00006   0.00000   0.00090   0.00090   0.00145
   D12       -3.14136   0.00019   0.00000   0.00302   0.00302  -3.13834
   D13       -3.14096  -0.00008   0.00000  -0.00130  -0.00130   3.14093
   D14        0.00032   0.00005   0.00000   0.00082   0.00082   0.00113
   D15       -0.00016   0.00003   0.00000   0.00047   0.00047   0.00031
   D16        3.14157  -0.00016   0.00000  -0.00259  -0.00259   3.13898
   D17        3.14135   0.00016   0.00000   0.00261   0.00262  -3.13922
   D18       -0.00011  -0.00003   0.00000  -0.00044  -0.00044  -0.00055
         Item               Value     Threshold  Converged?
 Maximum Force            0.087348     0.000450     NO 
 RMS     Force            0.021310     0.000300     NO 
 Maximum Displacement     0.156740     0.001800     NO 
 RMS     Displacement     0.066775     0.001200     NO 
 Predicted change in Energy=-1.972795D-02
 Lowest energy point so far.  Saving SCF results.
 GradGradGradGradGradGradGradGradGradGradGradGradGradGradGradGradGradGrad

 Leave Link  103 at Thu Mar 28 08:44:20 2024, MaxMem=  1073741824 cpu:               4.0 elap:               0.7
 (Enter /apps/versions/2023.01/rocky8/x86_64/generic/software/Gaussian/16.B.01/g16/l202.exe)
                          Input orientation:                          
 ---------------------------------------------------------------------
 Center     Atomic      Atomic             Coordinates (Angstroms)
 Number     Number       Type             X           Y           Z
 ---------------------------------------------------------------------
      1          6           0       -5.745116   -4.383153   -0.731160
      2          1           0       -6.092616   -4.697652    0.269251
      3          1           0       -5.436413   -5.279967   -1.273097
      4          1           0       -6.595972   -3.937699   -1.276845
      5          7           0       -4.614428   -3.490377   -0.660450
      6          1           0       -3.758015   -3.796248   -1.085868
      7          6           0       -4.633848   -2.227115   -0.041519
      8          7           0       -5.796678   -1.723417    0.575390
      9          1           0       -6.652808   -2.244278    0.598521
     10          1           0       -5.812108   -0.822435    1.014124
     11          7           0       -3.462957   -1.440785   -0.038341
     12          1           0       -2.610425   -1.752375   -0.465109
     13          1           0       -3.436607   -0.534497    0.390104
 ---------------------------------------------------------------------
                    Distance matrix (angstroms):
                    1          2          3          4          5
     1  C    0.000000
     2  H    1.104757   0.000000
     3  H    1.092369   1.774410   0.000000
     4  H    1.104608   1.794801   1.773774   0.000000
     5  N    1.442394   2.122944   2.062433   2.122865   0.000000
     6  H    2.102105   2.845916   2.247999   2.847891   1.003983
     7  C    2.521709   2.885850   3.388333   2.881330   1.406870
     8  N    2.963768   3.004558   4.024394   2.995445   2.459098
     9  H    2.677076   2.537966   3.768020   2.527430   2.700511
    10  H    3.966007   3.956112   5.024154   3.945612   3.369948
    11  N    3.787582   4.197249   4.489819   4.193359   2.431818
    12  H    4.100982   4.619479   4.591618   4.617265   2.659857
    13  H    4.625862   4.939721   5.411558   4.933771   3.350844
                    6          7          8          9         10
     6  H    0.000000
     7  C    2.078443   0.000000
     8  N    3.348515   1.409419   0.000000
     9  H    3.691287   2.118052   1.002392   0.000000
    10  H    4.180051   2.115610   1.002245   1.703274   0.000000
    11  N    2.594722   1.410430   2.429568   3.350574   2.647366
    12  H    2.424813   2.121095   3.351967   4.208816   3.647422
    13  H    3.594554   2.117697   2.649112   3.648388   2.472916
                   11         12         13
    11  N    0.000000
    12  H    1.003010   0.000000
    13  H    1.002805   1.702114   0.000000
 Stoichiometry    C2H8N3(2)
 Framework group  C1[X(C2H8N3)]
 Deg. of freedom    33
 Full point group                 C1      NOp   1
 RotChk:  IX=0 Diff= 6.04D-03
 Largest Abelian subgroup         C1      NOp   1
 Largest concise Abelian subgroup C1      NOp   1
                         Standard orientation:                         
 ---------------------------------------------------------------------
 Center     Atomic      Atomic             Coordinates (Angstroms)
 Number     Number       Type             X           Y           Z
 ---------------------------------------------------------------------
      1          6           0       -2.003243   -0.037193   -0.000525
      2          1           0       -2.160026    0.584101    0.899420
      3          1           0       -2.772578   -0.812658   -0.007431
      4          1           0       -2.153841    0.592703   -0.895349
      5          7           0       -0.714159   -0.684311    0.000814
      6          1           0       -0.702108   -1.688220   -0.000730
      7          6           0        0.518270   -0.005781    0.001144
      8          7           0        0.587675    1.401928    0.000161
      9          1           0       -0.235794    1.973494    0.000427
     10          1           0        1.465231    1.886058   -0.002375
     11          7           0        1.716789   -0.749328   -0.000118
     12          1           0        1.721858   -1.752324   -0.001512
     13          1           0        2.614956   -0.303335   -0.002159
 ---------------------------------------------------------------------
 Rotational constants (GHZ):           8.6378680           3.7184136           2.6435649
 Leave Link  202 at Thu Mar 28 08:44:21 2024, MaxMem=  1073741824 cpu:               0.0 elap:               0.1
 (Enter /apps/versions/2023.01/rocky8/x86_64/generic/software/Gaussian/16.B.01/g16/l301.exe)
 Standard basis: 6-31G(d) (6D, 7F)
 Ernie: Thresh=  0.10000D-02 Tol=  0.10000D-05 Strict=F.
 There are    91 symmetry adapted cartesian basis functions of A   symmetry.
 There are    91 symmetry adapted basis functions of A   symmetry.
    91 basis functions,   172 primitive gaussians,    91 cartesian basis functions
    21 alpha electrons       20 beta electrons
       nuclear repulsion energy       187.0293535228 Hartrees.
 IExCor=  402 DFT=T Ex+Corr=B3LYP ExCW=0 ScaHFX=  0.200000
 ScaDFX=  0.800000  0.720000  1.000000  0.810000 ScalE2=  1.000000  1.000000
 IRadAn=      5 IRanWt=     -1 IRanGd=            0 ICorTp=0 IEmpDi=  4
 NAtoms=   13 NActive=   13 NUniq=   13 SFac= 1.00D+00 NAtFMM=   60 NAOKFM=F Big=F
 Integral buffers will be    131072 words long.
 Raffenetti 2 integral format.
 Two-electron integral symmetry is turned on.
 Leave Link  301 at Thu Mar 28 08:44:21 2024, MaxMem=  1073741824 cpu:               0.1 elap:               0.1
 (Enter /apps/versions/2023.01/rocky8/x86_64/generic/software/Gaussian/16.B.01/g16/l302.exe)
 NPDir=0 NMtPBC=     1 NCelOv=     1 NCel=       1 NClECP=     1 NCelD=      1
         NCelK=      1 NCelE2=     1 NClLst=     1 CellRange=     0.0.
 One-electron integrals computed using PRISM.
 One-electron integral symmetry used in STVInt
 NBasis=    91 RedAO= T EigKep=  3.62D-03  NBF=    91
 NBsUse=    91 1.00D-06 EigRej= -1.00D+00 NBFU=    91
 Precomputing XC quadrature grid using
 IXCGrd= 4 IRadAn=           5 IRanWt=          -1 IRanGd=           0 AccXCQ= 0.00D+00.
 Generated NRdTot=       0 NPtTot=           0 NUsed=           0 NTot=          32
 NSgBfM=    91    91    91    91    91 MxSgAt=    13 MxSgA2=    13.
 Leave Link  302 at Thu Mar 28 08:44:21 2024, MaxMem=  1073741824 cpu:               0.5 elap:               0.1
 (Enter /apps/versions/2023.01/rocky8/x86_64/generic/software/Gaussian/16.B.01/g16/l303.exe)
 DipDrv:  MaxL=1.
 Leave Link  303 at Thu Mar 28 08:44:21 2024, MaxMem=  1073741824 cpu:               0.1 elap:               0.1
 (Enter /apps/versions/2023.01/rocky8/x86_64/generic/software/Gaussian/16.B.01/g16/l401.exe)
 Initial guess from the checkpoint file:  "/scratch/p315462/ARG.chk"
 B after Tr=    -0.000000   -0.000000    0.000000
         Rot=    0.999999    0.000018    0.000016    0.001451 Ang=   0.17 deg.
 Guess basis will be translated and rotated to current coordinates.
 JPrj=2 DoOrth=T DoCkMO=T.
 Initial guess <Sx>= 0.0000 <Sy>= 0.0000 <Sz>= 0.5000 <S**2>= 0.7531 S= 0.5015
 Generating alternative initial guess.
 ExpMin= 1.61D-01 ExpMax= 4.17D+03 ExpMxC= 6.27D+02 IAcc=3 IRadAn=         5 AccDes= 0.00D+00
 Harris functional with IExCor=  402 and IRadAn=       5 diagonalized for initial guess.
 HarFok:  IExCor=  402 AccDes= 0.00D+00 IRadAn=         5 IDoV= 1 UseB2=F ITyADJ=14
 ICtDFT=  3500011 ScaDFX=  1.000000  1.000000  1.000000  1.000000
 FoFCou: FMM=F IPFlag=           0 FMFlag=      100000 FMFlg1=           0
         NFxFlg=           0 DoJE=T BraDBF=F KetDBF=T FulRan=T
         wScrn=  0.000000 ICntrl=       500 IOpCl=  0 I1Cent=   200000004 NGrid=           0
         NMat0=    1 NMatS0=      1 NMatT0=    0 NMatD0=    1 NMtDS0=    0 NMtDT0=    0
 Petite list used in FoFCou.
 Harris En= -245.163918109989    
 Leave Link  401 at Thu Mar 28 08:44:22 2024, MaxMem=  1073741824 cpu:               1.9 elap:               0.3
 (Enter /apps/versions/2023.01/rocky8/x86_64/generic/software/Gaussian/16.B.01/g16/l502.exe)
 Integral symmetry usage will be decided dynamically.
 UHF open shell SCF:
 Using DIIS extrapolation, IDIIS=  1040.
 NGot=  1073741824 LenX=  1073723292 LenY=  1073714570
 Requested convergence on RMS density matrix=1.00D-08 within 128 cycles.
 Requested convergence on MAX density matrix=1.00D-06.
 Requested convergence on             energy=1.00D-06.
 No special actions if energy rises.
 Fock matrices will be formed incrementally for  20 cycles.
 Integral accuracy reduced to 1.0D-05 until final iterations.

 Cycle   1  Pass 0  IDiag  1:
[...]
 **** Fit       0.001990
 **** Fit       0.001390
 **** Fit      -0.003444
 **** Fit      -0.003735
 **** Fit      -0.003983
 **** Fit      -0.004178
 **** Fit      -0.004316
 **** Fit      -0.004393
 **** Fit      -0.004409
 **** Fit      -0.004365
 **** Fit      -0.004263
 **** Fit      -0.004106
 **** Fit      -0.003897
 **** Fit      -0.003640
 **** Fit      -0.003339
 **** Fit      -0.002999
 **** Fit      -0.002624
 **** Fit      -0.002220
 **** Fit      -0.001791
 **** Fit      -0.001342
 **** Fit      -0.000879
 **** Fit      -0.000407
 **** Fit       0.000069
 **** Fit       0.000542
 **** Fit       0.001005
 **** Fit       0.001452
 **** Fit       0.001875
 **** Fit       0.002266
 **** Fit       0.002617
 **** Fit       0.003239
 **** Fit       0.003453
 **** Fit       0.003601
 **** Fit       0.003677
 **** Fit       0.003671
 **** Fit       0.003580
 **** Fit       0.003398
 **** Fit       0.003125
 **** Fit       0.002764
 **** Fit       0.002319
 **** Fit       0.001803
 **** Fit      -0.003319
 **** Fit      -0.003445
 **** Fit      -0.003553
 **** Fit      -0.003630
 **** Fit      -0.003667
 **** Fit      -0.003657
 **** Fit      -0.003600
 **** Fit      -0.003493
 **** Fit      -0.003337
 **** Fit      -0.003136
 **** Fit      -0.002890
 **** Fit      -0.002604
 **** Fit      -0.002282
 **** Fit      -0.001927
 **** Fit      -0.001545
 **** Fit      -0.001140
 **** Fit      -0.000716
 **** Fit      -0.000280
 **** Fit       0.000164
 **** Fit       0.000610
 **** Fit       0.001052
 **** Fit       0.001484
 **** Fit       0.001899
 **** Fit       0.002290
 **** Fit       0.002649
 **** Fit       0.002968
 **** Fit       0.003569
 **** Fit       0.003754
 **** Fit       0.003878
 **** Fit       0.003936
 **** Fit       0.003923
 **** Fit       0.003835
 **** Fit       0.003671
 **** Fit       0.003434
 **** Fit       0.003129
 **** Fit       0.002767
 **** Fit       0.002365
 **** Fit      -0.003108
 **** Fit      -0.003082
 **** Fit      -0.003057
 **** Fit      -0.003016
 **** Fit      -0.002949
 **** Fit      -0.002851
 **** Fit      -0.002716
 **** Fit      -0.002545
 **** Fit      -0.002336
 **** Fit      -0.002090
 **** Fit      -0.001811
 **** Fit      -0.001501
 **** Fit      -0.001164
 **** Fit      -0.000802
 **** Fit      -0.000422
 **** Fit      -0.000027
 **** Fit       0.000379
 **** Fit       0.000790
 **** Fit       0.001200
 **** Fit       0.001606
 **** Fit       0.001999
 **** Fit       0.002376
 **** Fit       0.002728
 **** Fit       0.003049
 **** Fit       0.003332
 **** Fit       0.003910
 **** Fit       0.004070
 **** Fit       0.004173
 **** Fit       0.004215
 **** Fit       0.004193
 **** Fit       0.004105
 **** Fit       0.003954
 **** Fit       0.003746
 **** Fit       0.003493
 **** Fit       0.003211
 **** Fit       0.002927
 **** Fit      -0.002835
 **** Fit      -0.002664
 **** Fit      -0.002517
 **** Fit      -0.002377
 **** Fit      -0.002228
 **** Fit      -0.002061
 **** Fit      -0.001871
 **** Fit      -0.001653
 **** Fit      -0.001407
 **** Fit      -0.001133
 **** Fit      -0.000832
 **** Fit      -0.000508
 **** Fit      -0.000163
 **** Fit       0.000199
 **** Fit       0.000574
 **** Fit       0.000958
 **** Fit       0.001345
 **** Fit       0.001731
 **** Fit       0.002110
 **** Fit       0.002477
 **** Fit       0.002826
 **** Fit       0.003150
 **** Fit       0.003443
 **** Fit       0.003699
 **** Fit       0.004260
 **** Fit       0.004398
 **** Fit       0.004484
 **** Fit       0.004514
 **** Fit       0.004488
 **** Fit       0.004408
 **** Fit       0.004280
 **** Fit       0.004115
 **** Fit       0.003931
 **** Fit       0.003753
 **** Fit      -0.002568
 **** Fit      -0.002250
 **** Fit      -0.001982
 **** Fit       0.001904
 **** Fit       0.002266
 **** Fit       0.002621
 **** Fit       0.002961
 **** Fit       0.003283
 **** Fit       0.003580
 **** Fit       0.003846
 **** Fit       0.004074
 **** Fit       0.004619
 **** Fit       0.004737
 **** Fit       0.004808
 **** Fit       0.004831
 **** Fit       0.004808
 **** Fit       0.004744
 **** Fit       0.004650
 **** Fit       0.004542
 **** Fit       0.004444
 **** Fit       0.004388
 **** Fit       0.003445
 **** Fit       0.003741
 **** Fit       0.004012
 **** Fit       0.004252
 **** Fit       0.004456
 **** Fit       0.004980
 **** Fit       0.005083
 **** Fit       0.005143
 **** Fit       0.005164
 **** Fit       0.005150
 **** Fit       0.005110
 **** Fit       0.005060
 **** Fit       0.005021
 **** Fit       0.005022
 **** Fit       0.005104
 **** Fit       0.004656
 **** Fit       0.004837
 **** Fit       0.005339
 **** Fit       0.005430
 **** Fit       0.005485
 **** Fit       0.005508
 **** Fit       0.005509
 **** Fit       0.005500
 **** Fit       0.005504
 **** Fit       0.005547
 **** Fit       0.005669
 **** Fit       0.005822
 **** Fit       0.005854
 **** Fit       0.005877
 **** Fit       0.005907
 **** Fit       0.005970
 **** Fit       0.006098
 **** Fit       0.006329
 **** Fit       0.006196
 **** Fit       0.006249
 **** Fit       0.006330
 **** Fit       0.006471
 **** Fit       0.006710
 **** Fit       0.007087
 **** Fit       0.006603
 **** Fit       0.006736
 **** Fit       0.006948
 **** Fit       0.007272
 **** Fit       0.007125
 **** Fit       0.007409
 **** Fit       0.007806
 **** Fit      -0.001653
 **** Fit      -0.001452
 **** Fit      -0.001238
 **** Fit      -0.001005
 **** Fit      -0.000748
 **** Fit      -0.000466
 **** Fit      -0.000158
 **** Fit       0.000175
 **** Fit       0.000531
 **** Fit       0.000908
 **** Fit      -0.002163
 **** Fit      -0.001769
 **** Fit      -0.001448
 **** Fit      -0.001173
 **** Fit      -0.000920
 **** Fit      -0.000673
 **** Fit      -0.000422
 **** Fit      -0.000160
 **** Fit       0.000120
 **** Fit       0.000418
 **** Fit       0.000735
 **** Fit       0.001072
 **** Fit       0.001426
 **** Fit       0.001795
 **** Fit       0.002175
 **** Fit       0.002562
 **** Fit       0.002952
 **** Fit      -0.002236
 **** Fit      -0.001672
 **** Fit      -0.001220
 **** Fit      -0.000846
 **** Fit      -0.000522
 **** Fit      -0.000227
 **** Fit       0.000055
 **** Fit       0.000335
 **** Fit       0.000620
 **** Fit       0.000917
 **** Fit       0.001226
 **** Fit       0.001549
 **** Fit       0.001885
 **** Fit       0.002232
 **** Fit       0.002589
 **** Fit       0.002950
 **** Fit       0.003313
 **** Fit       0.003671
 **** Fit       0.004020
 **** Fit       0.004354
 **** Fit       0.005153
 **** Fit       0.005391
 **** Fit      -0.001975
 **** Fit      -0.001330
 **** Fit      -0.000805
 **** Fit      -0.000369
 **** Fit       0.000008
 **** Fit       0.000346
 **** Fit       0.000663
 **** Fit       0.000971
 **** Fit       0.001277
 **** Fit       0.001588
 **** Fit       0.001907
 **** Fit       0.002235
 **** Fit       0.002571
 **** Fit       0.002913
 **** Fit       0.003259
 **** Fit       0.003604
 **** Fit       0.003945
 **** Fit       0.004276
 **** Fit       0.004591
 **** Fit       0.004885
 **** Fit       0.005336
 **** Fit       0.005566
 **** Fit       0.005768
 **** Fit       0.005944
 **** Fit      -0.001690
 **** Fit      -0.000991
 **** Fit      -0.000412
 **** Fit       0.000074
 **** Fit       0.000494
 **** Fit       0.000869
 **** Fit       0.001216
 **** Fit       0.001547
 **** Fit       0.001871
 **** Fit       0.002195
 **** Fit       0.002521
 **** Fit       0.002852
 **** Fit       0.003185
 **** Fit       0.003520
 **** Fit       0.003852
 **** Fit       0.004179
 **** Fit       0.004496
 **** Fit       0.004797
 **** Fit       0.005079
 **** Fit       0.005492
 **** Fit       0.005722
 **** Fit       0.005928
 **** Fit       0.006114
 **** Fit       0.006291
 **** Fit      -0.001646
 **** Fit      -0.000868
 **** Fit      -0.000211
 **** Fit       0.000346
 **** Fit       0.000825
 **** Fit       0.001248
 **** Fit       0.001632
 **** Fit       0.001993
 **** Fit       0.002340
 **** Fit       0.002681
 **** Fit       0.003019
 **** Fit       0.003356
 **** Fit       0.003691
 **** Fit       0.004023
 **** Fit       0.004347
 **** Fit       0.004661
 **** Fit       0.004959
 **** Fit       0.005237
 **** Fit       0.005615
 **** Fit       0.005848
 **** Fit       0.006061
 **** Fit       0.006260
 **** Fit       0.006457
 **** Fit       0.006671
 **** Fit       0.006924
 **** Fit      -0.000748
 **** Fit      -0.000041
 **** Fit       0.000571
 **** Fit       0.001102
 **** Fit       0.001570
 **** Fit       0.001991
 **** Fit       0.002382
 **** Fit       0.002751
 **** Fit       0.003109
 **** Fit       0.003458
 **** Fit       0.003801
 **** Fit       0.004138
 **** Fit       0.004465
 **** Fit       0.004781
 **** Fit       0.005080
 **** Fit       0.005359
 **** Fit       0.005700
 **** Fit       0.005938
 **** Fit       0.006159
 **** Fit       0.006369
 **** Fit       0.006582
 **** Fit       0.006815
 **** Fit       0.007083
 **** Fit       0.007394
 **** Fit       0.007736
 **** Fit      -0.000573
 **** Fit       0.000135
 **** Fit       0.000774
 **** Fit       0.001341
 **** Fit       0.001846
 **** Fit       0.002300
 **** Fit       0.002718
 **** Fit       0.003109
 **** Fit       0.003483
 **** Fit       0.003843
 **** Fit       0.004192
 **** Fit       0.004528
 **** Fit       0.004851
 **** Fit       0.005155
 **** Fit       0.005439
 **** Fit       0.005740
 **** Fit       0.005984
 **** Fit       0.006210
 **** Fit       0.006425
 **** Fit       0.006642
 **** Fit       0.006869
 **** Fit       0.007106
 **** Fit       0.007333
 **** Fit       0.007501
 **** Fit       0.007526
 **** Fit       0.004553
 **** Fit      -0.000258
 **** Fit       0.000369
 **** Fit       0.000986
 **** Fit       0.001562
 **** Fit       0.002089
 **** Fit       0.002568
 **** Fit       0.003008
 **** Fit       0.003419
 **** Fit       0.003807
 **** Fit       0.004177
 **** Fit       0.004530
 **** Fit       0.004865
 **** Fit       0.005180
 **** Fit       0.005472
 **** Fit       0.005728
 **** Fit       0.005984
 **** Fit       0.006216
 **** Fit       0.006430
 **** Fit       0.006629
 **** Fit       0.006804
 **** Fit       0.006924
 **** Fit       0.006923
 **** Fit       0.006711
 **** Fit       0.006203
 **** Fit       0.005364
 **** Fit       0.004248
 **** Fit       0.002995
 **** Fit       0.000044
 **** Fit       0.000183
 **** Fit       0.000559
 **** Fit       0.001066
 **** Fit       0.001618
 **** Fit       0.002163
 **** Fit       0.002679
 **** Fit       0.003158
 **** Fit       0.003604
 **** Fit       0.004022
 **** Fit       0.004415
 **** Fit       0.004784
 **** Fit       0.005127
 **** Fit       0.005443
 **** Fit       0.005656
 **** Fit       0.005923
 **** Fit       0.006148
 **** Fit       0.006329
 **** Fit       0.006446
 **** Fit       0.006453
 **** Fit       0.006272
 **** Fit       0.005821
 **** Fit       0.005065
 **** Fit       0.004074
 **** Fit       0.003016
 **** Fit       0.002105
 **** Fit       0.001510
 **** Fit       0.001295
 **** Fit       0.001418
 **** Fit       0.001771
 **** Fit       0.002243
 **** Fit       0.002755
 **** Fit       0.003261
 **** Fit       0.003742
 **** Fit       0.004193
 **** Fit       0.004613
 **** Fit       0.004999
 **** Fit       0.005348
 **** Fit       0.005517
 **** Fit       0.005786
 **** Fit       0.005971
 **** Fit       0.006039
 **** Fit       0.005925
 **** Fit       0.005547
 **** Fit       0.004870
 **** Fit       0.003990
 **** Fit       0.003133
 **** Fit       0.002541
 **** Fit       0.002336
 **** Fit       0.002483
 **** Fit       0.002857
 **** Fit       0.003337
 **** Fit       0.003840
 **** Fit       0.004327
 **** Fit       0.004777
 **** Fit       0.005177
 **** Fit       0.005299
 **** Fit       0.005546
 **** Fit       0.005589
 **** Fit       0.005335
 **** Fit       0.004741
 **** Fit       0.003970
 **** Fit       0.003377
 **** Fit       0.003215
 **** Fit       0.003454
 **** Fit       0.003913
 **** Fit       0.004430
 **** Fit       0.004911
 **** Fit       0.004991
 **** Fit       0.005101
 **** Fit       0.004651
 **** Fit       0.004049
 **** Fit       0.004030
 **** Fit       0.004511
 **** Fit       0.004580
 **** Fit      -0.006780
 **** Fit      -0.007041
 **** Fit      -0.007546
 **** Fit      -0.005959
 **** Fit      -0.005947
 **** Fit      -0.006161
 **** Fit      -0.006601
 **** Fit      -0.007265
 **** Fit      -0.008141
 **** Fit      -0.009208
 **** Fit      -0.005424
 **** Fit      -0.005190
 **** Fit      -0.005159
 **** Fit      -0.005333
 **** Fit      -0.005715
 **** Fit      -0.006309
 **** Fit      -0.007112
 **** Fit      -0.008119
 **** Fit      -0.009316
 **** Fit      -0.004687
 **** Fit      -0.004459
 **** Fit      -0.004414
 **** Fit      -0.004554
 **** Fit      -0.004885
 **** Fit      -0.005412
 **** Fit      -0.006138
 **** Fit      -0.007067
 **** Fit      -0.008199
 **** Fit      -0.005092
 **** Fit      -0.003985
 **** Fit      -0.003766
 **** Fit      -0.003711
 **** Fit      -0.003824
 **** Fit      -0.004110
 **** Fit      -0.004574
 **** Fit      -0.005226
 **** Fit      -0.006070
 **** Fit      -0.007115
 **** Fit      -0.008365
 **** Fit      -0.004904
 **** Fit      -0.004365
 **** Fit      -0.003320
 **** Fit      -0.003109
 **** Fit      -0.003050
 **** Fit      -0.003148
 **** Fit      -0.003408
 **** Fit      -0.003836
 **** Fit      -0.004442
 **** Fit      -0.005236
 **** Fit      -0.006227
 **** Fit      -0.007428
 **** Fit      -0.004191
 **** Fit      -0.003682
 **** Fit      -0.002691
 **** Fit      -0.002489
 **** Fit      -0.002428
 **** Fit      -0.002512
 **** Fit      -0.002747
 **** Fit      -0.003139
 **** Fit      -0.003699
 **** Fit      -0.004436
 **** Fit      -0.005363
 **** Fit      -0.006495
 **** Fit      -0.007849
 **** Fit      -0.003511
 **** Fit      -0.003032
 **** Fit      -0.002097
 **** Fit      -0.001903
 **** Fit      -0.001844
 **** Fit      -0.001922
 **** Fit      -0.002144
 **** Fit      -0.002518
 **** Fit      -0.003051
 **** Fit      -0.003757
 **** Fit      -0.004649
 **** Fit      -0.005744
 **** Fit      -0.007063
 **** Fit      -0.003467
 **** Fit      -0.002879
 **** Fit      -0.002423
 **** Fit      -0.001537
 **** Fit      -0.001353
 **** Fit      -0.001296
 **** Fit      -0.001369
 **** Fit      -0.001578
 **** Fit      -0.001929
 **** Fit      -0.002434
 **** Fit      -0.003102
 **** Fit      -0.003950
 **** Fit      -0.004994
 **** Fit      -0.006257
 **** Fit      -0.002832
 **** Fit      -0.002277
 **** Fit      -0.001846
 **** Fit      -0.001010
 **** Fit      -0.000835
 **** Fit      -0.000783
 **** Fit      -0.000856
 **** Fit      -0.001060
 **** Fit      -0.001403
 **** Fit      -0.001894
 **** Fit      -0.002545
 **** Fit      -0.003372
 **** Fit      -0.004393
 **** Fit      -0.005632
 **** Fit      -0.007119
 **** Fit      -0.002249
 **** Fit      -0.001717
 **** Fit      -0.001304
 **** Fit      -0.000513
 **** Fit      -0.000350
 **** Fit      -0.000302
 **** Fit      -0.000375
 **** Fit      -0.000574
 **** Fit      -0.000905
 **** Fit      -0.001379
 **** Fit      -0.002006
 **** Fit      -0.002803
 **** Fit      -0.003789
 **** Fit      -0.004987
 **** Fit      -0.006428
 **** Fit      -0.001687
 **** Fit      -0.001183
 **** Fit      -0.000791
 **** Fit      -0.000046
 **** Fit       0.000106
 **** Fit       0.000147
 **** Fit       0.000075
 **** Fit      -0.000117
 **** Fit      -0.000434
 **** Fit      -0.000887
 **** Fit      -0.001486
 **** Fit      -0.002246
 **** Fit      -0.003185
 **** Fit      -0.004328
 **** Fit      -0.005703
 **** Fit      -0.001147
 **** Fit      -0.000673
 **** Fit      -0.000306
 **** Fit       0.000395
 **** Fit       0.000535
 **** Fit       0.000568
 **** Fit       0.000492
 **** Fit       0.000300
 **** Fit      -0.000013
 **** Fit      -0.000457
 **** Fit      -0.001043
 **** Fit      -0.001785
 **** Fit      -0.002702
 **** Fit      -0.003817
 **** Fit      -0.005160
 **** Fit      -0.000645
 **** Fit      -0.000195
 **** Fit       0.000152
 **** Fit       0.000813
 **** Fit       0.000941
 **** Fit       0.000964
 **** Fit       0.000879
 **** Fit       0.000682
 **** Fit       0.000364
 **** Fit      -0.000082
 **** Fit      -0.000668
 **** Fit      -0.001410
 **** Fit      -0.002325
 **** Fit      -0.003438
 **** Fit      -0.004778
 **** Fit       0.000254
 **** Fit       0.000584
 **** Fit       0.001211
 **** Fit       0.001325
 **** Fit       0.001337
 **** Fit       0.001245
 **** Fit       0.001044
 **** Fit       0.000725
 **** Fit       0.000282
 **** Fit      -0.000298
 **** Fit      -0.001029
 **** Fit      -0.001930
 **** Fit      -0.003023
 **** Fit      -0.004338
 **** Fit       0.000690
 **** Fit       0.000999
 **** Fit       0.001593
 **** Fit       0.001691
 **** Fit       0.001693
 **** Fit       0.001594
 **** Fit       0.001390
 **** Fit       0.001074
 **** Fit       0.000638
 **** Fit       0.000072
 **** Fit      -0.000639
 **** Fit      -0.001512
 **** Fit      -0.002568
 **** Fit       0.001116
 **** Fit       0.001401
 **** Fit       0.001963
 **** Fit       0.002045
 **** Fit       0.002033
 **** Fit       0.001924
 **** Fit       0.001712
 **** Fit       0.001392
 **** Fit       0.000954
 **** Fit       0.000390
 **** Fit      -0.000315
 **** Fit      -0.001177
 **** Fit      -0.002215
 **** Fit       0.001790
 **** Fit       0.002327
 **** Fit       0.002391
 **** Fit       0.002363
 **** Fit       0.002239
 **** Fit       0.002014
 **** Fit       0.001682
 **** Fit       0.001234
 **** Fit       0.000661
 **** Fit      -0.000049
 **** Fit      -0.000913
 **** Fit      -0.001950
 **** Fit       0.002733
 **** Fit       0.002689
 **** Fit       0.002551
 **** Fit       0.002316
 **** Fit       0.001976
 **** Fit       0.001525
 **** Fit       0.000954
 **** Fit       0.000251
 **** Fit      -0.000596
 **** Fit       0.003017
 **** Fit       0.002867
 **** Fit       0.002624
 **** Fit       0.002283
 **** Fit       0.001837
 **** Fit       0.001279
 **** Fit       0.000601
 **** Fit      -0.000208
 **** Fit       0.002930
 **** Fit       0.002582
 **** Fit       0.002136
 **** Fit       0.001587
 **** Fit       0.000931
 -----------------------------------------------------------------
 Leave Link  602 at Thu Mar 28 08:47:21 2024, MaxMem=   104857600 cpu:               0.7 elap:               0.8
 (Enter /apps/versions/2023.01/rocky8/x86_64/generic/software/Gaussian/16.B.01/g16/l9999.exe)

 Test job not archived.
 1\1\GINC-NODE17\SP\UHF\6-31G(d)\C2H8N3(2)\P315462\28-Mar-2024\0\\#P HF
 /6-31G* SCF=(Tight,MaxCycle=900) Geom=AllCheck Guess=Read Pop=MK IOp(6
 /33=2,6/41=10,6/42=17)\\Arginine molecule\\0,2\C,0,-5.7301823463,-4.30
 49993571,-0.7307087393\H,0,-5.8578250398,-4.8545867748,0.2181632107\H,
 0,-5.6081543756,-5.0333041197,-1.537838203\H,0,-6.6530531536,-3.749015
 7201,-0.926649076\N,0,-4.5939466608,-3.3949257888,-0.7384366359\H,0,-3
 .7108888556,-3.8974340621,-0.7588764543\C,0,-4.5292447374,-2.383469931
 8,0.2560963839\N,0,-5.6925179273,-1.6349107577,0.5791212982\H,0,-6.473
 9221725,-2.2243189913,0.8521664259\H,0,-6.0072494131,-1.0246399435,-0.
 1885275574\N,0,-3.3154647027,-1.6626783619,0.160397178\H,0,-3.17464496
 99,-1.2425250539,-0.7659473436\H,0,-3.3008956453,-0.9231911372,0.85603
 95126\\Version=ES64L-G16RevB.01\State=2-A\HF=-243.6732308\S2=0.759828\
 S2-1=0.\S2A=0.750078\RMSD=3.525e-09\Dipole=-0.5138478,-0.1079747,-0.41
 71741\Quadrupole=-0.1110675,2.4785593,-2.3674918,0.9261614,-0.5587837,
 -1.0079608\PG=C01 [X(C2H8N3)]\\@


 UNDER MOST GREENE GRASSE LY MOST GREATE SNAKES.
 -- PROVERBS AND REASONS OF THE YEAR 1585
           AS REPRINTED IN PAISLEY MAGAZINE 1828.
 Job cpu time:       0 days  0 hours  0 minutes  1.7 seconds.
 Elapsed time:       0 days  0 hours  0 minutes  4.9 seconds.
 File lengths (MBytes):  RWF=     22 Int=      0 D2E=      0 Chk=      2 Scr=      2
 Normal termination of Gaussian 16 at Thu Mar 28 08:47:21 2024.
