 Entering Gaussian System, Link 0=g16
 Input=ASP.com
 Output=ASP.log
 Initial command:
 /usr/local/gaussian/gaussian16.c01-legacy/g16/l1.exe "/scratch/master9/Gau-3423465.inp" -scrdir="/scratch/master9/"
 Entering Link 1 = /usr/local/gaussian/gaussian16.c01-legacy/g16/l1.exe PID=   3423471.
  
 Copyright (c) 1988-2019, Gaussian, Inc.  All Rights Reserved.
  
 This is part of the Gaussian(R) 16 program.  It is based on
 the Gaussian(R) 09 system (copyright 2009, Gaussian, Inc.),
 the Gaussian(R) 03 system (copyright 2003, Gaussian, Inc.),
 the Gaussian(R) 98 system (copyright 1998, Gaussian, Inc.),
 the Gaussian(R) 94 system (copyright 1995, Gaussian, Inc.),
 the Gaussian 92(TM) system (copyright 1992, Gaussian, Inc.),
 the Gaussian 90(TM) system (copyright 1990, Gaussian, Inc.),
 the Gaussian 88(TM) system (copyright 1988, Gaussian, Inc.),
 the Gaussian 86(TM) system (copyright 1986, Carnegie Mellon
 University), and the Gaussian 82(TM) system (copyright 1983,
 Carnegie Mellon University). Gaussian is a federally registered
 trademark of Gaussian, Inc.
  
 This software contains proprietary and confidential information,
 including trade secrets, belonging to Gaussian, Inc.
  
 This software is provided under written license and may be
 used, copied, transmitted, or stored only in accord with that
 written license.
  
 The following legend is applicable only to US Government
 contracts under FAR:
  
                    RESTRICTED RIGHTS LEGEND
  
 Use, reproduction and disclosure by the US Government is
 subject to restrictions as set forth in subparagraphs (a)
 and (c) of the Commercial Computer Software - Restricted
 Rights clause in FAR 52.227-19.
  
 Gaussian, Inc.
 340 Quinnipiac St., Bldg. 40, Wallingford CT 06492
  
  
 ---------------------------------------------------------------
 Warning -- This program may not be used in any manner that
 competes with the business of Gaussian, Inc. or will provide
 assistance to any competitor of Gaussian, Inc.  The licensee
 of this program is prohibited from giving any competitor of
 Gaussian, Inc. access to this program.  By using this program,
 the user acknowledges that Gaussian, Inc. is engaged in the
 business of creating and licensing software in the field of
 computational chemistry and represents and warrants to the
 licensee that it is not a competitor of Gaussian, Inc. and that
 it will not use this program in any manner prohibited above.
 ---------------------------------------------------------------
  

 Cite this work as:
 Gaussian 16, Revision C.01,
 M. J. Frisch, G. W. Trucks, H. B. Schlegel, G. E. Scuseria, 
 M. A. Robb, J. R. Cheeseman, G. Scalmani, V. Barone, 
 G. A. Petersson, H. Nakatsuji, X. Li, M. Caricato, A. V. Marenich, 
 J. Bloino, B. G. Janesko, R. Gomperts, B. Mennucci, H. P. Hratchian, 
 J. V. Ortiz, A. F. Izmaylov, J. L. Sonnenberg, D. Williams-Young, 
 F. Ding, F. Lipparini, F. Egidi, J. Goings, B. Peng, A. Petrone, 
 T. Henderson, D. Ranasinghe, V. G. Zakrzewski, J. Gao, N. Rega, 
 G. Zheng, W. Liang, M. Hada, M. Ehara, K. Toyota, R. Fukuda, 
 J. Hasegawa, M. Ishida, T. Nakajima, Y. Honda, O. Kitao, H. Nakai, 
 T. Vreven, K. Throssell, J. A. Montgomery, Jr., J. E. Peralta, 
 F. Ogliaro, M. J. Bearpark, J. J. Heyd, E. N. Brothers, K. N. Kudin, 
 V. N. Staroverov, T. A. Keith, R. Kobayashi, J. Normand, 
 K. Raghavachari, A. P. Rendell, J. C. Burant, S. S. Iyengar, 
 J. Tomasi, M. Cossi, J. M. Millam, M. Klene, C. Adamo, R. Cammi, 
 J. W. Ochterski, R. L. Martin, K. Morokuma, O. Farkas, 
 J. B. Foresman, and D. J. Fox, Gaussian, Inc., Wallingford CT, 2019.
 
 ******************************************
 Gaussian 16:  EM64L-G16RevC.01  3-Jul-2019
                 5-Feb-2024 
 ******************************************
 %nproc=16
 Will use up to   16 processors via shared memory.
 %chk=ASP
 -----------------------
 #HF/6-31G* scrf=smd opt
 -----------------------
 1/18=20,19=15,26=6,38=1/1,3;
 2/9=110,12=2,17=6,18=5,40=1/2;
 3/5=1,6=6,7=1,11=9,25=1,30=1,70=32201,71=1/1,2,3;
 4//1;
 5/5=2,38=5/2;
 6/7=2,8=2,9=2,10=2,28=1/1;
 7//1,2,3,16;
 1/18=20,19=15,26=6/3(2);
 2/9=110/2;
 99//99;
 2/9=110/2;
 3/5=1,6=6,7=1,11=9,25=1,30=1,70=32205,71=1/1,2,3;
 4/5=5,16=3,69=1/1;
 5/5=2,38=5/2;
 7//1,2,3,16;
 1/18=20,19=15,26=6/3(-5);
 2/9=110/2;
 6/7=2,8=2,9=2,10=2,19=2,28=1/1;
 99/9=1/99;
 ----------------------
 Deprotonated Aspartate
 ----------------------
 Symbolic Z-matrix:
 Charge = -1 Multiplicity = 1
 C                    -2.46445   1.95499  -0.28495 
 O                    -2.5215    0.84355  -0.7909 
 O                    -1.28726   2.55624   0.0021 
 H                    -1.37399   3.43509   0.41923 
 C                    -3.65191   2.81874   0.05057 
 C                    -4.99068   2.16605  -0.30428 
 H                    -3.54828   3.74941  -0.52194 
 H                    -3.6153    3.06843   1.11744 
 N                    -5.18286   0.87321   0.37639 
 H                    -4.4722    0.21245   0.04283 
 H                    -6.08664   0.47378   0.12248 
 C                    -6.10306   3.14955   0.10694 
 H                    -5.06141   1.98216  -1.38288 
 O                    -6.62643   3.20426   1.21032 
 O                    -6.43311   4.02699  -0.87266 
 

 GradGradGradGradGradGradGradGradGradGradGradGradGradGradGradGradGradGrad
 Berny optimization.
 Initialization pass.
                           ----------------------------
                           !    Initial Parameters    !
                           ! (Angstroms and Degrees)  !
 --------------------------                            --------------------------
 ! Name  Definition              Value          Derivative Info.                !
 --------------------------------------------------------------------------------
 ! R1    R(1,2)                  1.2225         estimate D2E/DX2                !
 ! R2    R(1,3)                  1.3527         estimate D2E/DX2                !
 ! R3    R(1,5)                  1.5062         estimate D2E/DX2                !
 ! R4    R(3,4)                  0.9767         estimate D2E/DX2                !
 ! R5    R(5,6)                  1.5311         estimate D2E/DX2                !
 ! R6    R(5,7)                  1.0976         estimate D2E/DX2                !
 ! R7    R(5,8)                  1.0963         estimate D2E/DX2                !
 ! R8    R(6,9)                  1.4737         estimate D2E/DX2                !
 ! R9    R(6,12)                 1.5407         estimate D2E/DX2                !
 ! R10   R(6,13)                 1.0964         estimate D2E/DX2                !
 ! R11   R(9,10)                 1.0261         estimate D2E/DX2                !
 ! R12   R(9,11)                 1.0202         estimate D2E/DX2                !
 ! R13   R(12,14)                1.2224         estimate D2E/DX2                !
 ! R14   R(12,15)                1.3559         estimate D2E/DX2                !
 ! A1    A(2,1,3)              122.1779         estimate D2E/DX2                !
 ! A2    A(2,1,5)              125.2225         estimate D2E/DX2                !
 ! A3    A(3,1,5)              112.5776         estimate D2E/DX2                !
 ! A4    A(1,3,4)              114.414          estimate D2E/DX2                !
 ! A5    A(1,5,6)              113.1574         estimate D2E/DX2                !
 ! A6    A(1,5,7)              107.195          estimate D2E/DX2                !
 ! A7    A(1,5,8)              108.7267         estimate D2E/DX2                !
 ! A8    A(6,5,7)              108.8527         estimate D2E/DX2                !
 ! A9    A(6,5,8)              110.5992         estimate D2E/DX2                !
 ! A10   A(7,5,8)              108.1397         estimate D2E/DX2                !
 ! A11   A(5,6,9)              112.3935         estimate D2E/DX2                !
 ! A12   A(5,6,12)             107.2971         estimate D2E/DX2                !
 ! A13   A(5,6,13)             110.8481         estimate D2E/DX2                !
 ! A14   A(9,6,12)             110.0343         estimate D2E/DX2                !
 ! A15   A(9,6,13)             107.387          estimate D2E/DX2                !
 ! A16   A(12,6,13)            108.8472         estimate D2E/DX2                !
 ! A17   A(6,9,10)             108.9332         estimate D2E/DX2                !
 ! A18   A(6,9,11)             110.1237         estimate D2E/DX2                !
 ! A19   A(10,9,11)            106.291          estimate D2E/DX2                !
 ! A20   A(6,12,14)            125.3515         estimate D2E/DX2                !
 ! A21   A(6,12,15)            113.3288         estimate D2E/DX2                !
 ! A22   A(14,12,15)           121.2606         estimate D2E/DX2                !
 ! D1    D(2,1,3,4)           -178.9094         estimate D2E/DX2                !
 ! D2    D(5,1,3,4)              2.7158         estimate D2E/DX2                !
 ! D3    D(2,1,5,6)              0.1254         estimate D2E/DX2                !
 ! D4    D(2,1,5,7)           -119.8917         estimate D2E/DX2                !
 ! D5    D(2,1,5,8)            123.4272         estimate D2E/DX2                !
 ! D6    D(3,1,5,6)            178.4415         estimate D2E/DX2                !
 ! D7    D(3,1,5,7)             58.4244         estimate D2E/DX2                !
 ! D8    D(3,1,5,8)            -58.2567         estimate D2E/DX2                !
 ! D9    D(1,5,6,9)             58.2597         estimate D2E/DX2                !
 ! D10   D(1,5,6,12)           179.3499         estimate D2E/DX2                !
 ! D11   D(1,5,6,13)           -61.9226         estimate D2E/DX2                !
 ! D12   D(7,5,6,9)            177.325          estimate D2E/DX2                !
 ! D13   D(7,5,6,12)           -61.5848         estimate D2E/DX2                !
 ! D14   D(7,5,6,13)            57.1427         estimate D2E/DX2                !
 ! D15   D(8,5,6,9)            -64.0031         estimate D2E/DX2                !
 ! D16   D(8,5,6,12)            57.0871         estimate D2E/DX2                !
 ! D17   D(8,5,6,13)           175.8146         estimate D2E/DX2                !
 ! D18   D(5,6,9,10)           -64.2942         estimate D2E/DX2                !
 ! D19   D(5,6,9,11)           179.5041         estimate D2E/DX2                !
 ! D20   D(12,6,9,10)          176.1983         estimate D2E/DX2                !
 ! D21   D(12,6,9,11)           59.9966         estimate D2E/DX2                !
 ! D22   D(13,6,9,10)           57.8716         estimate D2E/DX2                !
 ! D23   D(13,6,9,11)          -58.3301         estimate D2E/DX2                !
 ! D24   D(5,6,12,14)          -88.091          estimate D2E/DX2                !
 ! D25   D(5,6,12,15)           89.1292         estimate D2E/DX2                !
 ! D26   D(9,6,12,14)           34.4746         estimate D2E/DX2                !
 ! D27   D(9,6,12,15)         -148.3051         estimate D2E/DX2                !
 ! D28   D(13,6,12,14)         151.8981         estimate D2E/DX2                !
 ! D29   D(13,6,12,15)         -30.8817         estimate D2E/DX2                !
 --------------------------------------------------------------------------------
 Trust Radius=3.00D-01 FncErr=5.00D-06 GrdErr=5.00D-06 EigMax=2.50D+02 EigMin=1.00D-04
 Number of steps in this run=     75 maximum allowed number of steps=    100.
 GradGradGradGradGradGradGradGradGradGradGradGradGradGradGradGradGradGrad

                          Input orientation:                          
 ---------------------------------------------------------------------
 Center     Atomic      Atomic             Coordinates (Angstroms)
 Number     Number       Type             X           Y           Z
 ---------------------------------------------------------------------
      1          6           0       -2.464450    1.954990   -0.284950
      2          8           0       -2.521500    0.843550   -0.790900
      3          8           0       -1.287260    2.556240    0.002100
      4          1           0       -1.373990    3.435090    0.419230
      5          6           0       -3.651910    2.818740    0.050570
      6          6           0       -4.990680    2.166050   -0.304280
      7          1           0       -3.548280    3.749410   -0.521940
      8          1           0       -3.615300    3.068430    1.117440
      9          7           0       -5.182860    0.873210    0.376390
     10          1           0       -4.472200    0.212450    0.042830
     11          1           0       -6.086640    0.473780    0.122480
     12          6           0       -6.103060    3.149550    0.106940
     13          1           0       -5.061410    1.982160   -1.382880
     14          8           0       -6.626430    3.204260    1.210320
     15          8           0       -6.433110    4.026990   -0.872660
 ---------------------------------------------------------------------
                    Distance matrix (angstroms):
                    1          2          3          4          5
     1  C    0.000000
     2  O    1.222513   0.000000
     3  O    1.352655   2.255106   0.000000
     4  H    1.968672   3.081765   0.976676   0.000000
     5  C    1.506220   2.426371   2.379669   2.388455   0.000000
     6  C    2.535105   2.843001   3.736501   3.900561   1.531087
     7  H    2.109691   3.093645   2.609690   2.390007   1.097567
     8  H    2.128592   3.128618   2.631747   2.376007   1.096311
     9  N    2.999562   2.906249   4.260092   4.590485   2.497009
    10  H    2.678609   2.213283   3.954599   4.486200   2.732340
    11  H    3.934494   3.698813   5.233085   5.573732   3.381112
    12  C    3.849680   4.353312   4.853343   4.747964   2.474015
    13  H    2.819644   2.845701   4.061028   4.353811   2.177461
    14  O    4.595496   5.140845   5.512392   5.316694   3.215807
    15  O    4.515401   5.043973   5.422922   5.254904   3.169747
                    6          7          8          9         10
     6  C    0.000000
     7  H    2.152887   0.000000
     8  H    2.174223   1.776455   0.000000
     9  N    1.473662   3.428028   2.797390   0.000000
    10  H    2.050819   3.699011   3.169493   1.026111   0.000000
    11  H    2.060832   4.193841   3.718827   1.020212   1.637392
    12  C    1.540702   2.698559   2.686381   2.470040   3.360115
    13  H    1.096447   2.480716   3.085906   2.083159   2.347699
    14  O    2.459181   3.573922   3.015623   2.865855   3.867126
    15  O    2.422139   2.919298   3.580417   3.615187   4.385659
                   11         12         13         14         15
    11  H    0.000000
    12  C    2.675866   0.000000
    13  H    2.364829   2.160416   0.000000
    14  O    2.988359   1.222439   3.266114   0.000000
    15  O    3.706163   1.355895   2.514600   2.247902   0.000000
 Stoichiometry    C4H6NO4(1-)
 Framework group  C1[X(C4H6NO4)]
 Deg. of freedom    39
 Full point group                 C1      NOp   1
 Largest Abelian subgroup         C1      NOp   1
 Largest concise Abelian subgroup C1      NOp   1
                         Standard orientation:                         
 ---------------------------------------------------------------------
 Center     Atomic      Atomic             Coordinates (Angstroms)
 Number     Number       Type             X           Y           Z
 ---------------------------------------------------------------------
      1          6           0        1.922127   -0.125741    0.041973
      2          8           0        2.234240    0.932285    0.568951
      3          8           0        2.844879   -1.022253   -0.375722
      4          1           0        2.470766   -1.820745   -0.795658
      5          6           0        0.510710   -0.601612   -0.181968
      6          6           0       -0.544900    0.386892    0.320800
      7          1           0        0.397419   -1.548385    0.361575
      8          1           0        0.372560   -0.802979   -1.250735
      9          7           0       -0.422586    1.710584   -0.315249
     10          1           0        0.475938    2.127166   -0.046888
     11          1           0       -1.145641    2.337798    0.037774
     12          6           0       -1.926243   -0.221546    0.011834
     13          1           0       -0.457010    0.534361    1.403724
     14          8           0       -2.545883   -0.075835   -1.031799
     15          8           0       -2.398999   -1.012854    1.006210
 ---------------------------------------------------------------------
 Rotational constants (GHZ):           3.1653701           0.9035688           0.8110037
 Standard basis: 6-31G(d) (6D, 7F)
 There are   147 symmetry adapted cartesian basis functions of A   symmetry.
 There are   147 symmetry adapted basis functions of A   symmetry.
   147 basis functions,   276 primitive gaussians,   147 cartesian basis functions
    35 alpha electrons       35 beta electrons
       nuclear repulsion energy       447.7242765541 Hartrees.
 NAtoms=   15 NActive=   15 NUniq=   15 SFac= 1.00D+00 NAtFMM=   60 NAOKFM=F Big=F
 Integral buffers will be    131072 words long.
 Raffenetti 1 integral format.
 Two-electron integral symmetry is turned on.
 ------------------------------------------------------------------------------
 Polarizable Continuum Model (PCM)
 =================================
 Model                : PCM.
 Atomic radii         : SMD-Coulomb.
 Polarization charges : Total charges.
 Charge compensation  : None.
 Solution method      : On-the-fly selection.
 Cavity type          : VdW (van der Waals Surface) (Alpha=1.000).
 Cavity algorithm     : GePol (No added spheres)
                        Default sphere list used, NSphG=   15.
                        Lebedev-Laikov grids with approx.  5.0 points / Ang**2.
                        Smoothing algorithm: York/Karplus (Gamma=1.0000).
                        Polarization charges: spherical gaussians, with
                                              point-specific exponents (IZeta= 3).
                        Self-potential: point-specific (ISelfS= 7).
                        Self-field    : sphere-specific E.n sum rule (ISelfD= 2).
 1st derivatives      : Analytical E(r).r(x)/FMM algorithm (CHGder, D1EAlg=3).
                        Cavity 1st derivative terms included.
 Solvent              : Water, Eps=  78.355300 Eps(inf)=   1.777849
 ------------------------------------------------------------------------------
 Spheres list:
 ISph  on   Nord     Re0    Alpha      Xe            Ye            Ze
    1   C      1    1.8500  1.000      1.922127     -0.125741      0.041973
    2   O      2    1.5200  1.000      2.234240      0.932285      0.568951
    3   O      3    1.5200  1.000      2.844879     -1.022253     -0.375722
    4   H      4    1.2000  1.000      2.470766     -1.820745     -0.795658
    5   C      5    1.8500  1.000      0.510710     -0.601612     -0.181968
    6   C      6    1.8500  1.000     -0.544900      0.386892      0.320800
    7   H      7    1.2000  1.000      0.397419     -1.548385      0.361575
    8   H      8    1.2000  1.000      0.372560     -0.802979     -1.250735
    9   N      9    1.8900  1.000     -0.422586      1.710584     -0.315249
   10   H     10    1.2000  1.000      0.475938      2.127166     -0.046888
   11   H     11    1.2000  1.000     -1.145641      2.337798      0.037774
   12   C     12    1.8500  1.000     -1.926243     -0.221546      0.011834
   13   H     13    1.2000  1.000     -0.457010      0.534361      1.403724
   14   O     14    1.5200  1.000     -2.545883     -0.075835     -1.031799
   15   O     15    1.5200  1.000     -2.398999     -1.012854      1.006210
 ------------------------------------------------------------------------------
 ------------------------------------------------------------------------------
 Atomic radii for non-electrostatic terms: SMD-CDS.
 ------------------------------------------------------------------------------
 Nuclear repulsion after PCM non-electrostatic terms =      447.7314979101 Hartrees.
 One-electron integrals computed using PRISM.
 NBasis=   147 RedAO= T EigKep=  2.50D-03  NBF=   147
 NBsUse=   147 1.00D-06 EigRej= -1.00D+00 NBFU=   147
 ExpMin= 1.61D-01 ExpMax= 5.48D+03 ExpMxC= 8.25D+02 IAcc=3 IRadAn=         5 AccDes= 0.00D+00
 Harris functional with IExCor=  205 and IRadAn=       5 diagonalized for initial guess.
 HarFok:  IExCor=  205 AccDes= 0.00D+00 IRadAn=         5 IDoV= 1 UseB2=F ITyADJ=14
 ICtDFT=  3500011 ScaDFX=  1.000000  1.000000  1.000000  1.000000
 FoFCou: FMM=F IPFlag=           0 FMFlag=      100000 FMFlg1=           0
         NFxFlg=           0 DoJE=T BraDBF=F KetDBF=T FulRan=T
         wScrn=  0.000000 ICntrl=       500 IOpCl=  0 I1Cent=   200000004 NGrid=           0
         NMat0=    1 NMatS0=      1 NMatT0=    0 NMatD0=    1 NMtDS0=    0 NMtDT0=    0
 Petite list used in FoFCou.
 Requested convergence on RMS density matrix=1.00D-08 within 128 cycles.
 Requested convergence on MAX density matrix=1.00D-06.
 Requested convergence on             energy=1.00D-06.
 No special actions if energy rises.
 Inv3:  Mode=1 IEnd=     3988227.
 Iteration    1 A*A^-1 deviation from unit magnitude is 6.44D-15 for    680.
 Iteration    1 A*A^-1 deviation from orthogonality  is 4.56D-15 for    680    455.
 Iteration    1 A^-1*A deviation from unit magnitude is 5.55D-15 for    252.
 Iteration    1 A^-1*A deviation from orthogonality  is 7.91D-15 for    714    680.
 Error on total polarization charges =  0.03172
 SCF Done:  E(RHF) =  -509.016696514     A.U. after   14 cycles
            NFock= 14  Conv=0.57D-08     -V/T= 2.0032
 SMD-CDS (non-electrostatic) energy       (kcal/mol) =       4.53
 (included in total energy above)

 **********************************************************************

            Population analysis using the SCF Density.

 **********************************************************************

 Orbital symmetries:
       Occupied  (A) (A) (A) (A) (A) (A) (A) (A) (A) (A) (A) (A)
                 (A) (A) (A) (A) (A) (A) (A) (A) (A) (A) (A) (A)
                 (A) (A) (A) (A) (A) (A) (A) (A) (A) (A) (A)
       Virtual   (A) (A) (A) (A) (A) (A) (A) (A) (A) (A) (A) (A)
                 (A) (A) (A) (A) (A) (A) (A) (A) (A) (A) (A) (A)
                 (A) (A) (A) (A) (A) (A) (A) (A) (A) (A) (A) (A)
                 (A) (A) (A) (A) (A) (A) (A) (A) (A) (A) (A) (A)
                 (A) (A) (A) (A) (A) (A) (A) (A) (A) (A) (A) (A)
                 (A) (A) (A) (A) (A) (A) (A) (A) (A) (A) (A) (A)
                 (A) (A) (A) (A) (A) (A) (A) (A) (A) (A) (A) (A)
                 (A) (A) (A) (A) (A) (A) (A) (A) (A) (A) (A) (A)
                 (A) (A) (A) (A) (A) (A) (A) (A) (A) (A) (A) (A)
                 (A) (A) (A) (A)
 The electronic state is 1-A.
 Alpha  occ. eigenvalues --  -20.61719 -20.56724 -20.51219 -20.47552 -15.53284
 Alpha  occ. eigenvalues --  -11.40444 -11.33816 -11.25747 -11.24199  -1.45626
 Alpha  occ. eigenvalues --   -1.37123  -1.36568  -1.22772  -1.17066  -1.03358
 Alpha  occ. eigenvalues --   -0.89587  -0.82610  -0.71842  -0.70640  -0.67225
 Alpha  occ. eigenvalues --   -0.65925  -0.65067  -0.61759  -0.59510  -0.57422
 Alpha  occ. eigenvalues --   -0.56969  -0.54825  -0.52490  -0.50519  -0.48743
 Alpha  occ. eigenvalues --   -0.46010  -0.40137  -0.39321  -0.38839  -0.38411
 Alpha virt. eigenvalues --    0.17567   0.21651   0.23430   0.25995   0.29918
 Alpha virt. eigenvalues --    0.32649   0.33880   0.35837   0.39810   0.41836
 Alpha virt. eigenvalues --    0.46708   0.46913   0.49631   0.54562   0.57883
 Alpha virt. eigenvalues --    0.61788   0.73912   0.76778   0.79477   0.81487
 Alpha virt. eigenvalues --    0.81735   0.85589   0.88647   0.89701   0.93985
 Alpha virt. eigenvalues --    0.94073   0.97510   0.99527   1.00635   1.03320
 Alpha virt. eigenvalues --    1.06318   1.09661   1.10143   1.12260   1.14238
 Alpha virt. eigenvalues --    1.16996   1.17647   1.20883   1.21166   1.24430
 Alpha virt. eigenvalues --    1.26045   1.26318   1.27776   1.30545   1.31290
 Alpha virt. eigenvalues --    1.36404   1.37259   1.37870   1.39571   1.42816
 Alpha virt. eigenvalues --    1.45956   1.55340   1.62678   1.65737   1.69923
 Alpha virt. eigenvalues --    1.71739   1.74742   1.75833   1.81646   1.90981
 Alpha virt. eigenvalues --    1.94709   1.98513   1.99963   2.04040   2.06620
 Alpha virt. eigenvalues --    2.08460   2.09170   2.12519   2.13055   2.16433
 Alpha virt. eigenvalues --    2.17002   2.17425   2.18623   2.21649   2.27644
 Alpha virt. eigenvalues --    2.29512   2.30694   2.31955   2.34571   2.37426
 Alpha virt. eigenvalues --    2.40521   2.47633   2.52842   2.61286   2.64289
 Alpha virt. eigenvalues --    2.73501   2.74547   2.77934   2.81322   2.82701
 Alpha virt. eigenvalues --    2.87547   2.95065   2.97577   2.99072   3.07393
 Alpha virt. eigenvalues --    3.09675   3.15344   3.21661   3.26281   3.35350
 Alpha virt. eigenvalues --    3.38008   3.45376   3.48897   4.18055   4.26914
 Alpha virt. eigenvalues --    4.35134   4.51726   4.57944   4.65604   4.79142
 Alpha virt. eigenvalues --    4.86769   5.11072
          Condensed to atoms (all electrons):
               1          2          3          4          5          6
     1  C    4.012459   0.563753   0.291460  -0.017480   0.376834  -0.041468
     2  O    0.563753   8.229950  -0.060485   0.002149  -0.087063   0.008546
     3  O    0.291460  -0.060485   8.368242   0.252989  -0.089725   0.003689
     4  H   -0.017480   0.002149   0.252989   0.222920   0.002413   0.000195
     5  C    0.376834  -0.087063  -0.089725   0.002413   5.388961   0.276383
     6  C   -0.041468   0.008546   0.003689   0.000195   0.276383   5.188377
     7  H   -0.024994   0.001204   0.000055   0.000062   0.371689  -0.033594
     8  H   -0.025090   0.001213   0.000411   0.000207   0.370658  -0.032894
     9  N   -0.002802  -0.009821  -0.000100   0.000001  -0.051905   0.208286
    10  H    0.000732   0.011562   0.000054  -0.000010  -0.005929  -0.026677
    11  H   -0.000026   0.000245   0.000002   0.000000   0.004774  -0.034380
    12  C    0.002699   0.000094  -0.000048  -0.000009  -0.030847   0.318980
    13  H   -0.003164   0.001996   0.000038  -0.000004  -0.039944   0.415993
    14  O   -0.000063   0.000000   0.000000  -0.000000   0.000702  -0.095638
    15  O   -0.000066   0.000001   0.000000  -0.000000  -0.000262  -0.102410
               7          8          9         10         11         12
     1  C   -0.024994  -0.025090  -0.002802   0.000732  -0.000026   0.002699
     2  O    0.001204   0.001213  -0.009821   0.011562   0.000245   0.000094
     3  O    0.000055   0.000411  -0.000100   0.000054   0.000002  -0.000048
     4  H    0.000062   0.000207   0.000001  -0.000010   0.000000  -0.000009
     5  C    0.371689   0.370658  -0.051905  -0.005929   0.004774  -0.030847
     6  C   -0.033594  -0.032894   0.208286  -0.026677  -0.034380   0.318980
     7  H    0.439157  -0.013169   0.003122  -0.000060  -0.000078  -0.002637
     8  H   -0.013169   0.442468   0.003369  -0.000107  -0.000104  -0.003282
     9  N    0.003122   0.003369   7.222077   0.317809   0.328247  -0.046558
    10  H   -0.000060  -0.000107   0.317809   0.343172  -0.021348   0.003782
    11  H   -0.000078  -0.000104   0.328247  -0.021348   0.360074  -0.002713
    12  C   -0.002637  -0.003282  -0.046558   0.003782  -0.002713   4.092874
    13  H    0.000777   0.003623  -0.053376  -0.001626  -0.001400  -0.045146
    14  O    0.000110   0.003008   0.007135  -0.000012   0.001763   0.515080
    15  O    0.005649   0.000120   0.002303  -0.000081   0.000119   0.430156
              13         14         15
     1  C   -0.003164  -0.000063  -0.000066
     2  O    0.001996   0.000000   0.000001
     3  O    0.000038   0.000000   0.000000
     4  H   -0.000004  -0.000000  -0.000000
     5  C   -0.039944   0.000702  -0.000262
     6  C    0.415993  -0.095638  -0.102410
     7  H    0.000777   0.000110   0.005649
     8  H    0.003623   0.003008   0.000120
     9  N   -0.053376   0.007135   0.002303
    10  H   -0.001626  -0.000012  -0.000081
    11  H   -0.001400   0.001763   0.000119
    12  C   -0.045146   0.515080   0.430156
    13  H    0.519607   0.002058   0.006551
    14  O    0.002058   8.418847  -0.095822
    15  O    0.006551  -0.095822   8.709950
 Mulliken charges:
               1
     1  C    0.867216
     2  O   -0.663344
     3  O   -0.766581
     4  H    0.536567
     5  C   -0.486739
     6  C   -0.053389
     7  H    0.252708
     8  H    0.249570
     9  N   -0.927787
    10  H    0.378737
    11  H    0.364826
    12  C    0.767575
    13  H    0.194016
    14  O   -0.757169
    15  O   -0.956208
 Sum of Mulliken charges =  -1.00000
 Mulliken charges with hydrogens summed into heavy atoms:
               1
     1  C    0.867216
     2  O   -0.663344
     3  O   -0.230013
     5  C    0.015539
     6  C    0.140628
     9  N   -0.184224
    12  C    0.767575
    14  O   -0.757169
    15  O   -0.956208
 Electronic spatial extent (au):  <R**2>=           1408.9396
 Charge=             -1.0000 electrons
 Dipole moment (field-independent basis, Debye):
    X=             10.7640    Y=             -0.5639    Z=             -1.1596  Tot=             10.8409
 Quadrupole moment (field-independent basis, Debye-Ang):
   XX=           -101.3801   YY=            -50.6350   ZZ=            -61.6817
   XY=            -19.1509   XZ=             -5.0205   YZ=              8.6279
 Traceless Quadrupole moment (field-independent basis, Debye-Ang):
   XX=            -30.1478   YY=             20.5973   ZZ=              9.5505
   XY=            -19.1509   XZ=             -5.0205   YZ=              8.6279
 Octapole moment (field-independent basis, Debye-Ang**2):
  XXX=             60.7364  YYY=             -1.7741  ZZZ=             -1.9695  XYY=             18.3226
  XXY=             13.6099  XXZ=            -10.5421  XZZ=             26.7463  YZZ=             -2.9889
  YYZ=             -5.6272  XYZ=            -11.0340
 Hexadecapole moment (field-independent basis, Debye-Ang**3):
 XXXX=          -1609.4514 YYYY=           -269.5895 ZZZZ=           -171.7719 XXXY=           -103.2358
 XXXZ=            -21.3535 YYYX=            -59.6880 YYYZ=             29.6031 ZZZX=             -3.9949
 ZZZY=             16.3822 XXYY=           -260.0785 XXZZ=           -277.8469 YYZZ=            -86.8661
 XXYZ=             31.2064 YYXZ=             -9.1059 ZZXY=            -21.0250
 N-N= 4.477314979101D+02 E-N=-2.107300883444D+03  KE= 5.073869809494D+02
 D1PCM: PCM CHGder 1st derivatives, ID1Alg=3 FixD1E=F DoIter=F DoCFld=F I1PDM=0.
 Calling FoFJK, ICntrl=      2127 FMM=F ISym2X=0 I1Cent= 0 IOpClX= 0 NMat=1 NMatS=1 NMatT=0.
 ***** Axes restored to original set *****
 -------------------------------------------------------------------
 Center     Atomic                   Forces (Hartrees/Bohr)
 Number     Number              X              Y              Z
 -------------------------------------------------------------------
      1        6           0.006932296   -0.008271487   -0.007487419
      2        8           0.016665075    0.047073933    0.020516702
      3        8          -0.010553665   -0.009013007   -0.001816732
      4        1          -0.004066543   -0.021869850   -0.010612518
      5        6          -0.008339598   -0.003509585   -0.003442023
      6        6          -0.017903328   -0.019868517    0.003955376
      7        1           0.000379115   -0.006781929    0.006318784
      8        1           0.000979767   -0.002181836   -0.007737921
      9        7           0.007996390   -0.012368416    0.000999588
     10        1          -0.017044202    0.015484921    0.005985476
     11        1           0.013523121    0.009090692    0.001601953
     12        6          -0.027871727    0.073131212   -0.078445923
     13        1           0.002496091    0.014021226    0.007547663
     14        8           0.010942488   -0.015709807    0.003108677
     15        8           0.025864719   -0.059227551    0.059508316
 -------------------------------------------------------------------
 Cartesian Forces:  Max     0.078445923 RMS     0.024290752

 GradGradGradGradGradGradGradGradGradGradGradGradGradGradGradGradGradGrad
 Berny optimization.
 FormGI is forming the generalized inverse of G from B-inverse, IUseBI=4.
 Internal  Forces:  Max     0.087638691 RMS     0.015643197
 Search for a local minimum.
 Step number   1 out of a maximum of   75
 All quantities printed in internal units (Hartrees-Bohrs-Radians)
 Mixed Optimization -- RFO/linear search
 Second derivative matrix not updated -- first step.
 ITU=  0
     Eigenvalues ---    0.00230   0.00240   0.00355   0.00684   0.00717
     Eigenvalues ---    0.01074   0.02318   0.04092   0.04399   0.04641
     Eigenvalues ---    0.05070   0.05395   0.06347   0.09492   0.12881
     Eigenvalues ---    0.16000   0.16000   0.16000   0.16896   0.18251
     Eigenvalues ---    0.22012   0.24994   0.25000   0.25000   0.25000
     Eigenvalues ---    0.28457   0.29323   0.31733   0.33953   0.34078
     Eigenvalues ---    0.34093   0.35305   0.43377   0.44304   0.52036
     Eigenvalues ---    0.53786   0.54460   0.94278   0.94311
 RFO step:  Lambda=-3.45758569D-02 EMin= 2.30000000D-03
 Linear search not attempted -- first point.
 Iteration  1 RMS(Cart)=  0.06306010 RMS(Int)=  0.00174428
 Iteration  2 RMS(Cart)=  0.00220201 RMS(Int)=  0.00023560
 Iteration  3 RMS(Cart)=  0.00000316 RMS(Int)=  0.00023559
 Iteration  4 RMS(Cart)=  0.00000000 RMS(Int)=  0.00023559
 Variable       Old X    -DE/DX   Delta X   Delta X   Delta X     New X
                                 (Linear)    (Quad)   (Total)
    R1        2.31022  -0.05207   0.00000  -0.05328  -0.05328   2.25694
    R2        2.55615  -0.02908   0.00000  -0.05022  -0.05022   2.50593
    R3        2.84634   0.00238   0.00000   0.00677   0.00677   2.85311
    R4        1.84565  -0.02384   0.00000  -0.04296  -0.04296   1.80269
    R5        2.89334  -0.00118   0.00000  -0.00359  -0.00359   2.88975
    R6        2.07410  -0.00901   0.00000  -0.02409  -0.02409   2.05001
    R7        2.07173  -0.00799   0.00000  -0.02128  -0.02128   2.05045
    R8        2.78482  -0.00733   0.00000  -0.01892  -0.01892   2.76590
    R9        2.91151  -0.01182   0.00000  -0.03705  -0.03705   2.87446
   R10        2.07198  -0.00994   0.00000  -0.02648  -0.02648   2.04550
   R11        1.93907  -0.02370   0.00000  -0.05061  -0.05061   1.88846
   R12        1.92792  -0.01594   0.00000  -0.03337  -0.03337   1.89455
   R13        2.31007  -0.00256   0.00000  -0.00262  -0.00262   2.30745
   R14        2.56227  -0.08764   0.00000  -0.15310  -0.15310   2.40917
    A1        2.13241  -0.02567   0.00000  -0.09015  -0.09016   2.04224
    A2        2.18554   0.00715   0.00000   0.02520   0.02519   2.21074
    A3        1.96485   0.01853   0.00000   0.06518   0.06517   2.03002
    A4        1.99690  -0.01147   0.00000  -0.05893  -0.05893   1.93797
    A5        1.97497   0.01365   0.00000   0.05731   0.05722   2.03219
    A6        1.87091  -0.00611   0.00000  -0.02821  -0.02859   1.84231
    A7        1.89764  -0.00378   0.00000  -0.01112  -0.01134   1.88630
    A8        1.89984  -0.00116   0.00000   0.00219   0.00238   1.90222
    A9        1.93032  -0.00414   0.00000  -0.01371  -0.01379   1.91653
   A10        1.88739   0.00105   0.00000  -0.00943  -0.00975   1.87764
   A11        1.96164  -0.00431   0.00000  -0.01811  -0.01805   1.94359
   A12        1.87269   0.00280   0.00000  -0.00407  -0.00448   1.86820
   A13        1.93466  -0.00322   0.00000  -0.02877  -0.02934   1.90533
   A14        1.92046  -0.00053   0.00000  -0.00249  -0.00263   1.91784
   A15        1.87426   0.00923   0.00000   0.08761   0.08798   1.96223
   A16        1.89974  -0.00419   0.00000  -0.03633  -0.03718   1.86257
   A17        1.90124  -0.00104   0.00000  -0.00973  -0.00997   1.89127
   A18        1.92202  -0.00640   0.00000  -0.03713  -0.03737   1.88465
   A19        1.85513   0.00175   0.00000  -0.00013  -0.00069   1.85444
   A20        2.18780  -0.02406   0.00000  -0.08441  -0.08442   2.10338
   A21        1.97796   0.00382   0.00000   0.01355   0.01355   1.99151
   A22        2.11640   0.02023   0.00000   0.07124   0.07124   2.18763
    D1       -3.12256   0.00023   0.00000   0.00166   0.00139  -3.12117
    D2        0.04740  -0.00058   0.00000  -0.00766  -0.00739   0.04001
    D3        0.00219   0.00125   0.00000   0.01929   0.01899   0.02117
    D4       -2.09251  -0.00145   0.00000   0.00090   0.00116  -2.09135
    D5        2.15421   0.00253   0.00000   0.03283   0.03262   2.18683
    D6        3.11439   0.00147   0.00000   0.02676   0.02662   3.14101
    D7        1.01970  -0.00123   0.00000   0.00837   0.00879   1.02849
    D8       -1.01677   0.00275   0.00000   0.04030   0.04026  -0.97651
    D9        1.01682   0.00472   0.00000   0.07600   0.07579   1.09262
   D10        3.13025   0.00329   0.00000   0.05909   0.05888  -3.09405
   D11       -1.08075  -0.00189   0.00000  -0.00353  -0.00349  -1.08424
   D12        3.09491   0.00484   0.00000   0.07806   0.07812  -3.11016
   D13       -1.07486   0.00341   0.00000   0.06115   0.06121  -1.01365
   D14        0.99733  -0.00178   0.00000  -0.00147  -0.00116   0.99617
   D15       -1.11706   0.00296   0.00000   0.05972   0.05962  -1.05744
   D16        0.99636   0.00153   0.00000   0.04281   0.04271   1.03907
   D17        3.06854  -0.00366   0.00000  -0.01981  -0.01966   3.04888
   D18       -1.12214  -0.00119   0.00000  -0.03352  -0.03339  -1.15553
   D19        3.13294   0.00090   0.00000  -0.00686  -0.00704   3.12589
   D20        3.07524  -0.00155   0.00000  -0.01488  -0.01454   3.06070
   D21        1.04714   0.00054   0.00000   0.01178   0.01181   1.05894
   D22        1.01005  -0.00162   0.00000  -0.02101  -0.02101   0.98904
   D23       -1.01805   0.00047   0.00000   0.00565   0.00533  -1.01272
   D24       -1.53748  -0.00114   0.00000  -0.03436  -0.03415  -1.57163
   D25        1.55560  -0.00071   0.00000  -0.02293  -0.02272   1.53288
   D26        0.60170  -0.00496   0.00000  -0.06058  -0.06041   0.54128
   D27       -2.58841  -0.00454   0.00000  -0.04915  -0.04898  -2.63739
   D28        2.65112   0.00343   0.00000   0.02257   0.02219   2.67331
   D29       -0.53899   0.00385   0.00000   0.03400   0.03363  -0.50536
         Item               Value     Threshold  Converged?
 Maximum Force            0.087639     0.000450     NO 
 RMS     Force            0.015643     0.000300     NO 
 Maximum Displacement     0.225623     0.001800     NO 
 RMS     Displacement     0.062747     0.001200     NO 
 Predicted change in Energy=-1.939990D-02
 GradGradGradGradGradGradGradGradGradGradGradGradGradGradGradGradGradGrad

                          Input orientation:                          
 ---------------------------------------------------------------------
 Center     Atomic      Atomic             Coordinates (Angstroms)
 Number     Number       Type             X           Y           Z
 ---------------------------------------------------------------------
      1          6           0       -2.435826    1.995331   -0.309228
      2          8           0       -2.402106    0.929174   -0.846418
      3          8           0       -1.272058    2.553526   -0.005004
      4          1           0       -1.398302    3.390413    0.435093
      5          6           0       -3.670927    2.791029    0.038470
      6          6           0       -5.014508    2.150327   -0.311833
      7          1           0       -3.575114    3.727437   -0.500785
      8          1           0       -3.637392    3.018565    1.098865
      9          7           0       -5.216609    0.900376    0.422369
     10          1           0       -4.541609    0.235708    0.104174
     11          1           0       -6.113900    0.533136    0.167189
     12          6           0       -6.096840    3.151251    0.062924
     13          1           0       -5.074379    2.013830   -1.383956
     14          8           0       -6.590888    3.141167    1.179518
     15          8           0       -6.378622    3.983630   -0.860689
 ---------------------------------------------------------------------
                    Distance matrix (angstroms):
                    1          2          3          4          5
     1  C    0.000000
     2  O    1.194320   0.000000
     3  O    1.326081   2.150234   0.000000
     4  H    1.891223   2.950862   0.953941   0.000000
     5  C    1.509802   2.420628   2.410990   2.383567   0.000000
     6  C    2.583337   2.932855   3.776592   3.895209   1.529190
     7  H    2.082033   3.053799   2.632097   2.393317   1.084820
     8  H    2.115063   3.110564   2.651338   2.364823   1.085050
     9  N    3.076835   3.087407   4.298260   4.558499   2.472060
    10  H    2.775157   2.441720   4.009260   4.465652   2.700384
    11  H    3.986629   3.868031   5.249291   5.520205   3.329079
    12  C    3.857158   4.406313   4.862141   4.719319   2.452634
    13  H    2.849095   2.933679   4.080494   4.326368   2.144065
    14  O    4.560027   5.152012   5.480728   5.251594   3.154483
    15  O    4.450065   5.014238   5.371629   5.180207   3.092312
                    6          7          8          9         10
     6  C    0.000000
     7  H    2.143556   0.000000
     8  H    2.154148   1.750788   0.000000
     9  N    1.463651   3.396909   2.727324   0.000000
    10  H    2.015555   3.673181   3.090519   0.999329   0.000000
    11  H    2.013314   4.134632   3.630216   1.002553   1.601416
    12  C    1.521097   2.647425   2.672015   2.443449   3.304669
    13  H    1.082435   2.442178   3.039543   2.126692   2.379096
    14  O    2.385554   3.501717   2.957140   2.735519   3.714513
    15  O    2.350117   2.838102   3.505074   3.535953   4.283981
                   11         12         13         14         15
    11  H    0.000000
    12  C    2.620246   0.000000
    13  H    2.383088   2.105378   0.000000
    14  O    2.837984   1.221052   3.184665   0.000000
    15  O    3.610057   1.274879   2.419704   2.217486   0.000000
 Stoichiometry    C4H6NO4(1-)
 Framework group  C1[X(C4H6NO4)]
 Deg. of freedom    39
 Full point group                 C1      NOp   1
 Largest Abelian subgroup         C1      NOp   1
 Largest concise Abelian subgroup C1      NOp   1
                         Standard orientation:                         
 ---------------------------------------------------------------------
 Center     Atomic      Atomic             Coordinates (Angstroms)
 Number     Number       Type             X           Y           Z
 ---------------------------------------------------------------------
      1          6           0        1.924396   -0.123935    0.040811
      2          8           0        2.292128    0.852516    0.621943
      3          8           0        2.862889   -0.936680   -0.425202
      4          1           0        2.476665   -1.676098   -0.887906
      5          6           0        0.494622   -0.546212   -0.197793
      6          6           0       -0.589957    0.388579    0.339122
      7          1           0        0.393804   -1.514980    0.279868
      8          1           0        0.359956   -0.691214   -1.264645
      9          7           0       -0.528018    1.701900   -0.304016
     10          1           0        0.326913    2.144051   -0.035217
     11          1           0       -1.266198    2.266109    0.072642
     12          6           0       -1.930050   -0.268504    0.045644
     13          1           0       -0.503392    0.451727    1.416240
     14          8           0       -2.513796   -0.044766   -1.003236
     15          8           0       -2.326933   -1.070129    0.954048
 ---------------------------------------------------------------------
 Rotational constants (GHZ):           3.2833265           0.9043381           0.8175256
 Standard basis: 6-31G(d) (6D, 7F)
 There are   147 symmetry adapted cartesian basis functions of A   symmetry.
 There are   147 symmetry adapted basis functions of A   symmetry.
   147 basis functions,   276 primitive gaussians,   147 cartesian basis functions
    35 alpha electrons       35 beta electrons
       nuclear repulsion energy       452.4954048774 Hartrees.
 NAtoms=   15 NActive=   15 NUniq=   15 SFac= 1.00D+00 NAtFMM=   60 NAOKFM=F Big=F
 Integral buffers will be    131072 words long.
 Raffenetti 1 integral format.
 Two-electron integral symmetry is turned on.
 ------------------------------------------------------------------------------
 Polarizable Continuum Model (PCM)
 =================================
 Model                : PCM.
 Atomic radii         : SMD-Coulomb.
 Polarization charges : Total charges.
 Charge compensation  : None.
 Solution method      : On-the-fly selection.
 Cavity type          : VdW (van der Waals Surface) (Alpha=1.000).
 Cavity algorithm     : GePol (No added spheres)
                        Default sphere list used, NSphG=   15.
                        Lebedev-Laikov grids with approx.  5.0 points / Ang**2.
                        Smoothing algorithm: York/Karplus (Gamma=1.0000).
                        Polarization charges: spherical gaussians, with
                                              point-specific exponents (IZeta= 3).
                        Self-potential: point-specific (ISelfS= 7).
                        Self-field    : sphere-specific E.n sum rule (ISelfD= 2).
 1st derivatives      : Analytical E(r).r(x)/FMM algorithm (CHGder, D1EAlg=3).
                        Cavity 1st derivative terms included.
 Solvent              : Water, Eps=  78.355300 Eps(inf)=   1.777849
 ------------------------------------------------------------------------------
 Spheres list:
 ISph  on   Nord     Re0    Alpha      Xe            Ye            Ze
    1   C      1    1.8500  1.000      1.924396     -0.123935      0.040811
    2   O      2    1.5200  1.000      2.292128      0.852516      0.621943
    3   O      3    1.5200  1.000      2.862889     -0.936680     -0.425202
    4   H      4    1.2000  1.000      2.476665     -1.676098     -0.887906
    5   C      5    1.8500  1.000      0.494622     -0.546212     -0.197793
    6   C      6    1.8500  1.000     -0.589957      0.388579      0.339122
    7   H      7    1.2000  1.000      0.393804     -1.514980      0.279868
    8   H      8    1.2000  1.000      0.359956     -0.691214     -1.264645
    9   N      9    1.8900  1.000     -0.528018      1.701900     -0.304016
   10   H     10    1.2000  1.000      0.326913      2.144051     -0.035217
   11   H     11    1.2000  1.000     -1.266198      2.266109      0.072642
   12   C     12    1.8500  1.000     -1.930050     -0.268504      0.045644
   13   H     13    1.2000  1.000     -0.503392      0.451727      1.416240
   14   O     14    1.5200  1.000     -2.513796     -0.044766     -1.003236
   15   O     15    1.5200  1.000     -2.326933     -1.070129      0.954048
 ------------------------------------------------------------------------------
 ------------------------------------------------------------------------------
 Atomic radii for non-electrostatic terms: SMD-CDS.
 ------------------------------------------------------------------------------
 Nuclear repulsion after PCM non-electrostatic terms =      452.5034970536 Hartrees.
 One-electron integrals computed using PRISM.
 NBasis=   147 RedAO= T EigKep=  2.39D-03  NBF=   147
 NBsUse=   147 1.00D-06 EigRej= -1.00D+00 NBFU=   147
 Initial guess from the checkpoint file:  "ASP.chk"
 B after Tr=     0.000000   -0.000000   -0.000000
         Rot=    0.999771   -0.020075   -0.002183   -0.007020 Ang=  -2.45 deg.
 ExpMin= 1.61D-01 ExpMax= 5.48D+03 ExpMxC= 8.25D+02 IAcc=3 IRadAn=         5 AccDes= 0.00D+00
 Harris functional with IExCor=  205 and IRadAn=       5 diagonalized for initial guess.
 HarFok:  IExCor=  205 AccDes= 0.00D+00 IRadAn=         5 IDoV= 1 UseB2=F ITyADJ=14
 ICtDFT=  3500011 ScaDFX=  1.000000  1.000000  1.000000  1.000000
 FoFCou: FMM=F IPFlag=           0 FMFlag=      100000 FMFlg1=           0
         NFxFlg=           0 DoJE=T BraDBF=F KetDBF=T FulRan=T
         wScrn=  0.000000 ICntrl=       500 IOpCl=  0 I1Cent=   200000004 NGrid=           0
         NMat0=    1 NMatS0=      1 NMatT0=    0 NMatD0=    1 NMtDS0=    0 NMtDT0=    0
 Petite list used in FoFCou.
 Requested convergence on RMS density matrix=1.00D-08 within 128 cycles.
 Requested convergence on MAX density matrix=1.00D-06.
 Requested convergence on             energy=1.00D-06.
 No special actions if energy rises.
 Inv3:  Mode=1 IEnd=     3967500.
 Iteration    1 A*A^-1 deviation from unit magnitude is 5.88D-15 for    614.
 Iteration    1 A*A^-1 deviation from orthogonality  is 3.99D-15 for    615    301.
 Iteration    1 A^-1*A deviation from unit magnitude is 6.33D-15 for    614.
 Iteration    1 A^-1*A deviation from orthogonality  is 2.35D-15 for    935    551.
 Error on total polarization charges =  0.03159
 SCF Done:  E(RHF) =  -509.035251928     A.U. after   12 cycles
            NFock= 12  Conv=0.96D-08     -V/T= 2.0019
 SMD-CDS (non-electrostatic) energy       (kcal/mol) =       5.08
 (included in total energy above)
 D1PCM: PCM CHGder 1st derivatives, ID1Alg=3 FixD1E=F DoIter=F DoCFld=F I1PDM=0.
 Calling FoFJK, ICntrl=      2127 FMM=F ISym2X=0 I1Cent= 0 IOpClX= 0 NMat=1 NMatS=1 NMatT=0.
 ***** Axes restored to original set *****
 -------------------------------------------------------------------
 Center     Atomic                   Forces (Hartrees/Bohr)
 Number     Number              X              Y              Z
 -------------------------------------------------------------------
      1        6           0.003071767   -0.001529910   -0.000678727
      2        8          -0.008229239   -0.007650589   -0.004622159
      3        8          -0.003778559    0.008231575    0.005222814
      4        1           0.003519021    0.001077285    0.000418529
      5        6           0.001301334   -0.000717973   -0.001795524
      6        6           0.001437296   -0.012160902    0.007511310
      7        1          -0.000275536    0.001890400    0.001423961
      8        1           0.001443790    0.000185230    0.000317422
      9        7           0.004814831    0.004047094   -0.002097611
     10        1           0.001179252   -0.002865300   -0.001119148
     11        1          -0.000710061   -0.001043734    0.000923896
     12        6          -0.002821221    0.029441136   -0.043721012
     13        1           0.001780441   -0.000703371   -0.001233161
     14        8          -0.007403416   -0.001498593    0.017555918
     15        8           0.004670298   -0.016702349    0.021893493
 -------------------------------------------------------------------
 Cartesian Forces:  Max     0.043721012 RMS     0.009996305

 GradGradGradGradGradGradGradGradGradGradGradGradGradGradGradGradGradGrad
 Berny optimization.
 Using GEDIIS/GDIIS optimizer.
 FormGI is forming the generalized inverse of G from B-inverse, IUseBI=4.
 Internal  Forces:  Max     0.027815918 RMS     0.005398156
 Search for a local minimum.
 Step number   2 out of a maximum of   75
 All quantities printed in internal units (Hartrees-Bohrs-Radians)
 Mixed Optimization -- RFO/linear search
 Update second derivatives using D2CorX and points    1    2
 DE= -1.86D-02 DEPred=-1.94D-02 R= 9.56D-01
 TightC=F SS=  1.41D+00  RLast= 3.51D-01 DXNew= 5.0454D-01 1.0527D+00
 Trust test= 9.56D-01 RLast= 3.51D-01 DXMaxT set to 5.05D-01
 ITU=  1  0
 Use linear search instead of GDIIS.
     Eigenvalues ---    0.00230   0.00237   0.00360   0.00685   0.00717
     Eigenvalues ---    0.01033   0.02318   0.03764   0.04697   0.04872
     Eigenvalues ---    0.05214   0.05334   0.06264   0.10001   0.13226
     Eigenvalues ---    0.15989   0.16000   0.16272   0.16533   0.18140
     Eigenvalues ---    0.22358   0.23813   0.24999   0.25000   0.27329
     Eigenvalues ---    0.29303   0.30725   0.31944   0.33993   0.34086
     Eigenvalues ---    0.34737   0.35214   0.42155   0.43903   0.45110
     Eigenvalues ---    0.52368   0.56076   0.93139   1.00997
 RFO step:  Lambda=-5.67128783D-03 EMin= 2.30358905D-03
 Quartic linear search produced a step of  0.02465.
 Iteration  1 RMS(Cart)=  0.05315327 RMS(Int)=  0.00112357
 Iteration  2 RMS(Cart)=  0.00168138 RMS(Int)=  0.00014365
 Iteration  3 RMS(Cart)=  0.00000150 RMS(Int)=  0.00014364
 Iteration  4 RMS(Cart)=  0.00000000 RMS(Int)=  0.00014364
 Variable       Old X    -DE/DX   Delta X   Delta X   Delta X     New X
                                 (Linear)    (Quad)   (Total)
    R1        2.25694   0.00868  -0.00131   0.00297   0.00166   2.25859
    R2        2.50593   0.00498  -0.00124   0.00331   0.00207   2.50800
    R3        2.85311  -0.00456   0.00017  -0.01361  -0.01345   2.83967
    R4        1.80269   0.00066  -0.00106  -0.00376  -0.00482   1.79787
    R5        2.88975  -0.00192  -0.00009  -0.00696  -0.00705   2.88270
    R6        2.05001   0.00090  -0.00059  -0.00011  -0.00070   2.04931
    R7        2.05045   0.00039  -0.00052  -0.00130  -0.00183   2.04862
    R8        2.76590  -0.00199  -0.00047  -0.00783  -0.00830   2.75760
    R9        2.87446   0.01031  -0.00091   0.03197   0.03106   2.90551
   R10        2.04550   0.00120  -0.00065   0.00050  -0.00016   2.04535
   R11        1.88846   0.00306  -0.00125   0.00121  -0.00004   1.88841
   R12        1.89455   0.00078  -0.00082  -0.00212  -0.00295   1.89160
   R13        2.30745   0.01908  -0.00006   0.02017   0.02011   2.32756
   R14        2.40917  -0.02782  -0.00377  -0.07011  -0.07389   2.33529
    A1        2.04224   0.01224  -0.00222   0.03868   0.03643   2.07867
    A2        2.21074  -0.00696   0.00062  -0.02483  -0.02424   2.18649
    A3        2.03002  -0.00527   0.00161  -0.01359  -0.01201   2.01801
    A4        1.93797   0.00656  -0.00145   0.03402   0.03256   1.97054
    A5        2.03219  -0.00764   0.00141  -0.02892  -0.02749   2.00469
    A6        1.84231   0.00267  -0.00070   0.01300   0.01246   1.85477
    A7        1.88630   0.00172  -0.00028  -0.00287  -0.00323   1.88307
    A8        1.90222   0.00249   0.00006   0.01806   0.01819   1.92041
    A9        1.91653   0.00273  -0.00034   0.00838   0.00782   1.92435
   A10        1.87764  -0.00173  -0.00024  -0.00654  -0.00687   1.87077
   A11        1.94359  -0.00396  -0.00044  -0.02264  -0.02329   1.92030
   A12        1.86820  -0.00099  -0.00011  -0.00024  -0.00015   1.86805
   A13        1.90533   0.00068  -0.00072  -0.02025  -0.02114   1.88419
   A14        1.91784   0.00586  -0.00006   0.04683   0.04674   1.96457
   A15        1.96223  -0.00004   0.00217   0.00516   0.00675   1.96898
   A16        1.86257  -0.00148  -0.00092  -0.00849  -0.00982   1.85274
   A17        1.89127   0.00105  -0.00025   0.00670   0.00643   1.89770
   A18        1.88465   0.00197  -0.00092   0.00943   0.00848   1.89313
   A19        1.85444  -0.00105  -0.00002  -0.00342  -0.00349   1.85095
   A20        2.10338  -0.00410  -0.00208  -0.02581  -0.02789   2.07548
   A21        1.99151   0.00529   0.00033   0.02266   0.02299   2.01450
   A22        2.18763  -0.00119   0.00176   0.00333   0.00508   2.19271
    D1       -3.12117  -0.00013   0.00003   0.00113   0.00136  -3.11981
    D2        0.04001  -0.00017  -0.00018  -0.01201  -0.01238   0.02762
    D3        0.02117   0.00057   0.00047   0.03294   0.03338   0.05455
    D4       -2.09135   0.00016   0.00003   0.01816   0.01826  -2.07309
    D5        2.18683   0.00005   0.00080   0.02063   0.02156   2.20840
    D6        3.14101   0.00087   0.00066   0.04837   0.04888  -3.09329
    D7        1.02849   0.00045   0.00022   0.03359   0.03377   1.06226
    D8       -0.97651   0.00034   0.00099   0.03606   0.03707  -0.93945
    D9        1.09262  -0.00211   0.00187   0.02412   0.02620   1.11882
   D10       -3.09405   0.00213   0.00145   0.06799   0.06943  -3.02463
   D11       -1.08424   0.00021  -0.00009   0.04776   0.04757  -1.03667
   D12       -3.11016  -0.00186   0.00193   0.03539   0.03742  -3.07274
   D13       -1.01365   0.00238   0.00151   0.07925   0.08065  -0.93299
   D14        0.99617   0.00046  -0.00003   0.05902   0.05879   1.05496
   D15       -1.05744  -0.00091   0.00147   0.04290   0.04459  -1.01286
   D16        1.03907   0.00332   0.00105   0.08677   0.08782   1.12689
   D17        3.04888   0.00140  -0.00048   0.06654   0.06596   3.11484
   D18       -1.15553   0.00046  -0.00082  -0.01206  -0.01292  -1.16845
   D19        3.12589   0.00014  -0.00017  -0.01633  -0.01657   3.10933
   D20        3.06070   0.00040  -0.00036  -0.02765  -0.02772   3.03299
   D21        1.05894   0.00007   0.00029  -0.03192  -0.03137   1.02758
   D22        0.98904  -0.00163  -0.00052  -0.05159  -0.05233   0.93671
   D23       -1.01272  -0.00195   0.00013  -0.05586  -0.05598  -1.06870
   D24       -1.57163   0.00012  -0.00084  -0.05656  -0.05749  -1.62911
   D25        1.53288   0.00018  -0.00056  -0.05133  -0.05197   1.48091
   D26        0.54128  -0.00189  -0.00149  -0.05713  -0.05848   0.48280
   D27       -2.63739  -0.00183  -0.00121  -0.05190  -0.05297  -2.69036
   D28        2.67331   0.00056   0.00055  -0.02885  -0.02836   2.64496
   D29       -0.50536   0.00061   0.00083  -0.02361  -0.02284  -0.52820
         Item               Value     Threshold  Converged?
 Maximum Force            0.027816     0.000450     NO 
 RMS     Force            0.005398     0.000300     NO 
 Maximum Displacement     0.169165     0.001800     NO 
 RMS     Displacement     0.053444     0.001200     NO 
 Predicted change in Energy=-3.098813D-03
 GradGradGradGradGradGradGradGradGradGradGradGradGradGradGradGradGradGrad

                          Input orientation:                          
 ---------------------------------------------------------------------
 Center     Atomic      Atomic             Coordinates (Angstroms)
 Number     Number       Type             X           Y           Z
 ---------------------------------------------------------------------
      1          6           0       -2.465584    2.003004   -0.347387
      2          8           0       -2.483864    0.962922   -0.935936
      3          8           0       -1.296891    2.529295   -0.003035
      4          1           0       -1.385591    3.345961    0.476892
      5          6           0       -3.677866    2.799530    0.045024
      6          6           0       -5.013016    2.147426   -0.300176
      7          1           0       -3.589815    3.755356   -0.459624
      8          1           0       -3.618861    2.992963    1.110079
      9          7           0       -5.172105    0.906545    0.451050
     10          1           0       -4.494272    0.246957    0.128409
     11          1           0       -6.066422    0.514736    0.230432
     12          6           0       -6.111673    3.174817    0.018293
     13          1           0       -5.043455    1.996294   -1.371492
     14          8           0       -6.651549    3.145731    1.124980
     15          8           0       -6.348116    3.993363   -0.876822
 ---------------------------------------------------------------------
                    Distance matrix (angstroms):
                    1          2          3          4          5
     1  C    0.000000
     2  O    1.195196   0.000000
     3  O    1.327179   2.175484   0.000000
     4  H    1.910328   2.980128   0.951389   0.000000
     5  C    1.502687   2.400219   2.396743   2.395750   0.000000
     6  C    2.551960   2.864237   3.747493   3.898529   1.525460
     7  H    2.085001   3.041001   2.639924   2.429664   1.084447
     8  H    2.105772   3.097654   2.616401   2.347984   1.084085
     9  N    3.027372   3.025483   4.225730   4.504343   2.445608
    10  H    2.725006   2.384780   3.930597   4.403313   2.681250
    11  H    3.938889   3.794206   5.182796   5.476016   3.310568
    12  C    3.847185   4.354771   4.857909   4.751364   2.462717
    13  H    2.773852   2.794471   4.024115   4.314868   2.125215
    14  O    4.582138   5.136304   5.506793   5.309465   3.182601
    15  O    4.394984   4.911161   5.331216   5.184431   3.066802
                    6          7          8          9         10
     6  C    0.000000
     7  H    2.153221   0.000000
     8  H    2.155788   1.745295   0.000000
     9  N    1.459259   3.383592   2.683286   0.000000
    10  H    2.016077   3.670517   3.044761   0.999306   0.000000
    11  H    2.014171   4.136590   3.592484   1.000994   1.598052
    12  C    1.537531   2.631577   2.727486   2.493015   3.346712
    13  H    1.082351   2.457412   3.030018   2.127384   2.368857
    14  O    2.390078   3.500975   3.036569   2.767108   3.748319
    15  O    2.349998   2.799808   3.520995   3.560153   4.299161
                   11         12         13         14         15
    11  H    0.000000
    12  C    2.668910   0.000000
    13  H    2.409903   2.112228   0.000000
    14  O    2.839846   1.231693   3.184265   0.000000
    15  O    3.661449   1.235780   2.436211   2.194940   0.000000
 Stoichiometry    C4H6NO4(1-)
 Framework group  C1[X(C4H6NO4)]
 Deg. of freedom    39
 Full point group                 C1      NOp   1
 Largest Abelian subgroup         C1      NOp   1
 Largest concise Abelian subgroup C1      NOp   1
                         Standard orientation:                         
 ---------------------------------------------------------------------
 Center     Atomic      Atomic             Coordinates (Angstroms)
 Number     Number       Type             X           Y           Z
 ---------------------------------------------------------------------
      1          6           0        1.909901   -0.133686    0.055596
      2          8           0        2.232427    0.815875    0.705832
      3          8           0        2.852322   -0.910944   -0.463167
      4          1           0        2.498551   -1.628110   -0.978590
      5          6           0        0.494478   -0.547856   -0.232691
      6          6           0       -0.573461    0.393481    0.315414
      7          1           0        0.373823   -1.536501    0.196318
      8          1           0        0.389490   -0.649777   -1.306855
      9          7           0       -0.469587    1.697559   -0.331137
     10          1           0        0.390015    2.125413   -0.054303
     11          1           0       -1.198099    2.285839    0.022677
     12          6           0       -1.934505   -0.278994    0.071821
     13          1           0       -0.451839    0.446742    1.389591
     14          8           0       -2.557525   -0.007623   -0.955443
     15          8           0       -2.288888   -1.087832    0.936313
 ---------------------------------------------------------------------
 Rotational constants (GHZ):           3.2961504           0.9131672           0.8275012
 Standard basis: 6-31G(d) (6D, 7F)
 There are   147 symmetry adapted cartesian basis functions of A   symmetry.
 There are   147 symmetry adapted basis functions of A   symmetry.
   147 basis functions,   276 primitive gaussians,   147 cartesian basis functions
    35 alpha electrons       35 beta electrons
       nuclear repulsion energy       453.9984560058 Hartrees.
 NAtoms=   15 NActive=   15 NUniq=   15 SFac= 1.00D+00 NAtFMM=   60 NAOKFM=F Big=F
 Integral buffers will be    131072 words long.
 Raffenetti 1 integral format.
 Two-electron integral symmetry is turned on.
 ------------------------------------------------------------------------------
 Polarizable Continuum Model (PCM)
 =================================
 Model                : PCM.
 Atomic radii         : SMD-Coulomb.
 Polarization charges : Total charges.
 Charge compensation  : None.
 Solution method      : On-the-fly selection.
 Cavity type          : VdW (van der Waals Surface) (Alpha=1.000).
 Cavity algorithm     : GePol (No added spheres)
                        Default sphere list used, NSphG=   15.
                        Lebedev-Laikov grids with approx.  5.0 points / Ang**2.
                        Smoothing algorithm: York/Karplus (Gamma=1.0000).
                        Polarization charges: spherical gaussians, with
                                              point-specific exponents (IZeta= 3).
                        Self-potential: point-specific (ISelfS= 7).
                        Self-field    : sphere-specific E.n sum rule (ISelfD= 2).
 1st derivatives      : Analytical E(r).r(x)/FMM algorithm (CHGder, D1EAlg=3).
                        Cavity 1st derivative terms included.
 Solvent              : Water, Eps=  78.355300 Eps(inf)=   1.777849
 ------------------------------------------------------------------------------
 Spheres list:
 ISph  on   Nord     Re0    Alpha      Xe            Ye            Ze
    1   C      1    1.8500  1.000      1.909901     -0.133686      0.055596
    2   O      2    1.5200  1.000      2.232427      0.815875      0.705832
    3   O      3    1.5200  1.000      2.852322     -0.910944     -0.463167
    4   H      4    1.2000  1.000      2.498551     -1.628110     -0.978590
    5   C      5    1.8500  1.000      0.494478     -0.547856     -0.232691
    6   C      6    1.8500  1.000     -0.573461      0.393481      0.315414
    7   H      7    1.2000  1.000      0.373823     -1.536501      0.196318
    8   H      8    1.2000  1.000      0.389490     -0.649777     -1.306855
    9   N      9    1.8900  1.000     -0.469587      1.697559     -0.331137
   10   H     10    1.2000  1.000      0.390015      2.125413     -0.054303
   11   H     11    1.2000  1.000     -1.198099      2.285839      0.022677
   12   C     12    1.8500  1.000     -1.934505     -0.278994      0.071821
   13   H     13    1.2000  1.000     -0.451839      0.446742      1.389591
   14   O     14    1.5200  1.000     -2.557525     -0.007623     -0.955443
   15   O     15    1.5200  1.000     -2.288888     -1.087832      0.936313
 ------------------------------------------------------------------------------
 ------------------------------------------------------------------------------
 Atomic radii for non-electrostatic terms: SMD-CDS.
 ------------------------------------------------------------------------------
 Nuclear repulsion after PCM non-electrostatic terms =      454.0066917954 Hartrees.
 One-electron integrals computed using PRISM.
 NBasis=   147 RedAO= T EigKep=  2.40D-03  NBF=   147
 NBsUse=   147 1.00D-06 EigRej= -1.00D+00 NBFU=   147
 Initial guess from the checkpoint file:  "ASP.chk"
 B after Tr=    -0.000000    0.000000    0.000000
         Rot=    0.999956   -0.009272   -0.000904    0.001255 Ang=  -1.08 deg.
 ExpMin= 1.61D-01 ExpMax= 5.48D+03 ExpMxC= 8.25D+02 IAcc=3 IRadAn=         5 AccDes= 0.00D+00
 Harris functional with IExCor=  205 and IRadAn=       5 diagonalized for initial guess.
 HarFok:  IExCor=  205 AccDes= 0.00D+00 IRadAn=         5 IDoV= 1 UseB2=F ITyADJ=14
 ICtDFT=  3500011 ScaDFX=  1.000000  1.000000  1.000000  1.000000
 FoFCou: FMM=F IPFlag=           0 FMFlag=      100000 FMFlg1=           0
         NFxFlg=           0 DoJE=T BraDBF=F KetDBF=T FulRan=T
         wScrn=  0.000000 ICntrl=       500 IOpCl=  0 I1Cent=   200000004 NGrid=           0
         NMat0=    1 NMatS0=      1 NMatT0=    0 NMatD0=    1 NMtDS0=    0 NMtDT0=    0
 Petite list used in FoFCou.
 Requested convergence on RMS density matrix=1.00D-08 within 128 cycles.
 Requested convergence on MAX density matrix=1.00D-06.
 Requested convergence on             energy=1.00D-06.
 No special actions if energy rises.
 Inv3:  Mode=1 IEnd=     3878307.
 Iteration    1 A*A^-1 deviation from unit magnitude is 6.00D-15 for    165.
 Iteration    1 A*A^-1 deviation from orthogonality  is 2.75D-15 for   1053     28.
 Iteration    1 A^-1*A deviation from unit magnitude is 6.66D-15 for    165.
 Iteration    1 A^-1*A deviation from orthogonality  is 1.67D-14 for    696    609.
 Error on total polarization charges =  0.03151
 SCF Done:  E(RHF) =  -509.037822202     A.U. after   12 cycles
            NFock= 12  Conv=0.70D-08     -V/T= 2.0017
 SMD-CDS (non-electrostatic) energy       (kcal/mol) =       5.17
 (included in total energy above)
 D1PCM: PCM CHGder 1st derivatives, ID1Alg=3 FixD1E=F DoIter=F DoCFld=F I1PDM=0.
 Calling FoFJK, ICntrl=      2127 FMM=F ISym2X=0 I1Cent= 0 IOpClX= 0 NMat=1 NMatS=1 NMatT=0.
 ***** Axes restored to original set *****
 -------------------------------------------------------------------
 Center     Atomic                   Forces (Hartrees/Bohr)
 Number     Number              X              Y              Z
 -------------------------------------------------------------------
      1        6          -0.000609120    0.003918477    0.003779378
      2        8           0.001977445   -0.003462059   -0.003596030
      3        8           0.002055898   -0.004245313   -0.002187120
      4        1          -0.001369835    0.002338059    0.001030224
      5        6          -0.000154862    0.001586525   -0.000412058
      6        6           0.001613077   -0.001635062    0.002755377
      7        1          -0.000125979    0.001455134    0.000092818
      8        1           0.000264405    0.000308555    0.001227497
      9        7          -0.001421676    0.004561551    0.000388884
     10        1           0.001426096   -0.001456576   -0.001384156
     11        1          -0.002302047   -0.001125152    0.000653067
     12        6           0.006310567   -0.008950575   -0.002163787
     13        1          -0.000021945   -0.001998355   -0.002122954
     14        8          -0.005970902   -0.001254757    0.012843542
     15        8          -0.001671125    0.009959546   -0.010904681
 -------------------------------------------------------------------
 Cartesian Forces:  Max     0.012843542 RMS     0.003960663

 GradGradGradGradGradGradGradGradGradGradGradGradGradGradGradGradGradGrad
 Berny optimization.
 Using GEDIIS/GDIIS optimizer.
 FormGI is forming the generalized inverse of G from B-inverse, IUseBI=4.
 Internal  Forces:  Max     0.014790110 RMS     0.002845664
 Search for a local minimum.
 Step number   3 out of a maximum of   75
 All quantities printed in internal units (Hartrees-Bohrs-Radians)
 Mixed Optimization -- RFO/linear search
 Update second derivatives using D2CorX and points    1    2    3
 DE= -2.57D-03 DEPred=-3.10D-03 R= 8.29D-01
 TightC=F SS=  1.41D+00  RLast= 2.80D-01 DXNew= 8.4853D-01 8.3892D-01
 Trust test= 8.29D-01 RLast= 2.80D-01 DXMaxT set to 8.39D-01
 ITU=  1  1  0
 Use linear search instead of GDIIS.
     Eigenvalues ---    0.00226   0.00236   0.00344   0.00674   0.00710
     Eigenvalues ---    0.01060   0.02316   0.03908   0.04623   0.04790
     Eigenvalues ---    0.05275   0.05369   0.06258   0.09801   0.13068
     Eigenvalues ---    0.15964   0.16000   0.16243   0.17173   0.18523
     Eigenvalues ---    0.22090   0.23559   0.25000   0.25014   0.27304
     Eigenvalues ---    0.29327   0.30873   0.33264   0.34005   0.34078
     Eigenvalues ---    0.34532   0.35030   0.43841   0.44729   0.52283
     Eigenvalues ---    0.52745   0.58211   0.93184   1.00521
 RFO step:  Lambda=-1.80149191D-03 EMin= 2.26124148D-03
 Quartic linear search produced a step of -0.10826.
 Iteration  1 RMS(Cart)=  0.08626727 RMS(Int)=  0.00336545
 Iteration  2 RMS(Cart)=  0.00395685 RMS(Int)=  0.00016397
 Iteration  3 RMS(Cart)=  0.00000786 RMS(Int)=  0.00016386
 Iteration  4 RMS(Cart)=  0.00000000 RMS(Int)=  0.00016386
 Variable       Old X    -DE/DX   Delta X   Delta X   Delta X     New X
                                 (Linear)    (Quad)   (Total)
    R1        2.25859   0.00476  -0.00018   0.00587   0.00570   2.26429
    R2        2.50800  -0.00046  -0.00022   0.00101   0.00079   2.50879
    R3        2.83967   0.00268   0.00146   0.00350   0.00496   2.84463
    R4        1.79787   0.00265   0.00052   0.00402   0.00454   1.80240
    R5        2.88270   0.00257   0.00076   0.00551   0.00628   2.88898
    R6        2.04931   0.00123   0.00008   0.00330   0.00338   2.05268
    R7        2.04862   0.00128   0.00020   0.00308   0.00327   2.05190
    R8        2.75760  -0.00162   0.00090  -0.00532  -0.00442   2.75318
    R9        2.90551   0.00075  -0.00336   0.01041   0.00705   2.91256
   R10        2.04535   0.00238   0.00002   0.00622   0.00623   2.05158
   R11        1.88841   0.00239   0.00000   0.00565   0.00565   1.89407
   R12        1.89160   0.00235   0.00032   0.00439   0.00471   1.89632
   R13        2.32756   0.01421  -0.00218   0.01719   0.01502   2.34258
   R14        2.33529   0.01479   0.00800   0.00838   0.01638   2.35166
    A1        2.07867  -0.00274  -0.00394   0.00158  -0.00268   2.07599
    A2        2.18649   0.00175   0.00262  -0.00077   0.00154   2.18803
    A3        2.01801   0.00099   0.00130  -0.00106  -0.00008   2.01793
    A4        1.97054  -0.00204  -0.00353  -0.00147  -0.00499   1.96555
    A5        2.00469   0.00015   0.00298  -0.00626  -0.00328   2.00141
    A6        1.85477  -0.00031  -0.00135   0.00159   0.00022   1.85499
    A7        1.88307   0.00034   0.00035   0.00291   0.00327   1.88634
    A8        1.92041   0.00029  -0.00197   0.00590   0.00392   1.92433
    A9        1.92435  -0.00026  -0.00085   0.00133   0.00051   1.92486
   A10        1.87077  -0.00023   0.00074  -0.00562  -0.00486   1.86591
   A11        1.92030   0.00155   0.00252   0.00261   0.00516   1.92546
   A12        1.86805   0.00018   0.00002   0.00097   0.00097   1.86902
   A13        1.88419  -0.00023   0.00229  -0.00154   0.00077   1.88496
   A14        1.96457  -0.00166  -0.00506   0.00154  -0.00353   1.96104
   A15        1.96898  -0.00030  -0.00073  -0.00153  -0.00221   1.96678
   A16        1.85274   0.00048   0.00106  -0.00219  -0.00109   1.85165
   A17        1.89770  -0.00086  -0.00070  -0.00197  -0.00266   1.89504
   A18        1.89313   0.00155  -0.00092   0.01116   0.01024   1.90337
   A19        1.85095  -0.00010   0.00038   0.00011   0.00049   1.85143
   A20        2.07548  -0.00079   0.00302  -0.00830  -0.00597   2.06952
   A21        2.01450  -0.00057  -0.00249   0.00280  -0.00038   2.01412
   A22        2.19271   0.00134  -0.00055   0.00353   0.00228   2.19500
    D1       -3.11981  -0.00059  -0.00015  -0.03083  -0.03095   3.13243
    D2        0.02762   0.00013   0.00134   0.01242   0.01373   0.04135
    D3        0.05455   0.00083  -0.00361   0.07520   0.07160   0.12615
    D4       -2.07309   0.00060  -0.00198   0.07052   0.06854  -2.00454
    D5        2.20840   0.00086  -0.00233   0.07484   0.07250   2.28089
    D6       -3.09329   0.00005  -0.00529   0.02892   0.02364  -3.06965
    D7        1.06226  -0.00019  -0.00366   0.02424   0.02058   1.08283
    D8       -0.93945   0.00007  -0.00401   0.02856   0.02453  -0.91491
    D9        1.11882   0.00117  -0.00284   0.11865   0.11579   1.23461
   D10       -3.02463   0.00019  -0.00752   0.12269   0.11518  -2.90945
   D11       -1.03667   0.00072  -0.00515   0.11990   0.11476  -0.92191
   D12       -3.07274   0.00109  -0.00405   0.12080   0.11673  -2.95600
   D13       -0.93299   0.00010  -0.00873   0.12484   0.11612  -0.81687
   D14        1.05496   0.00064  -0.00637   0.12205   0.11570   1.17066
   D15       -1.01286   0.00082  -0.00483   0.11832   0.11347  -0.89939
   D16        1.12689  -0.00016  -0.00951   0.12236   0.11286   1.23974
   D17        3.11484   0.00037  -0.00714   0.11957   0.11244  -3.05591
   D18       -1.16845  -0.00041   0.00140  -0.04621  -0.04480  -1.21325
   D19        3.10933  -0.00066   0.00179  -0.05120  -0.04940   3.05993
   D20        3.03299  -0.00062   0.00300  -0.05020  -0.04723   2.98576
   D21        1.02758  -0.00087   0.00340  -0.05520  -0.05183   0.97575
   D22        0.93671   0.00018   0.00567  -0.04736  -0.04167   0.89503
   D23       -1.06870  -0.00007   0.00606  -0.05235  -0.04627  -1.11497
   D24       -1.62911  -0.00057   0.00622  -0.08337  -0.07716  -1.70627
   D25        1.48091  -0.00093   0.00563  -0.14768  -0.14202   1.33890
   D26        0.48280   0.00047   0.00633  -0.07855  -0.07226   0.41054
   D27       -2.69036   0.00011   0.00573  -0.14286  -0.13712  -2.82748
   D28        2.64496  -0.00061   0.00307  -0.08102  -0.07797   2.56699
   D29       -0.52820  -0.00098   0.00247  -0.14533  -0.14283  -0.67103
         Item               Value     Threshold  Converged?
 Maximum Force            0.014790     0.000450     NO 
 RMS     Force            0.002846     0.000300     NO 
 Maximum Displacement     0.332173     0.001800     NO 
 RMS     Displacement     0.085977     0.001200     NO 
 Predicted change in Energy=-1.100166D-03
 GradGradGradGradGradGradGradGradGradGradGradGradGradGradGradGradGradGrad

                          Input orientation:                          
 ---------------------------------------------------------------------
 Center     Atomic      Atomic             Coordinates (Angstroms)
 Number     Number       Type             X           Y           Z
 ---------------------------------------------------------------------
      1          6           0       -2.457098    2.039097   -0.405508
      2          8           0       -2.466893    1.071169   -1.111714
      3          8           0       -1.290164    2.555738   -0.039642
      4          1           0       -1.387578    3.326474    0.513706
      5          6           0       -3.676062    2.785834    0.066159
      6          6           0       -5.007146    2.119571   -0.282384
      7          1           0       -3.620900    3.773411   -0.382787
      8          1           0       -3.593126    2.922098    1.140194
      9          7           0       -5.192995    0.913542    0.513590
     10          1           0       -4.535638    0.222754    0.204894
     11          1           0       -6.103063    0.534448    0.326374
     12          6           0       -6.114379    3.162522   -0.033851
     13          1           0       -5.014023    1.921953   -1.349874
     14          8           0       -6.736589    3.122855    1.037591
     15          8           0       -6.223427    4.043436   -0.906057
 ---------------------------------------------------------------------
                    Distance matrix (angstroms):
                    1          2          3          4          5
     1  C    0.000000
     2  O    1.198210   0.000000
     3  O    1.327596   2.176689   0.000000
     4  H    1.909494   2.982166   0.953790   0.000000
     5  C    1.505311   2.406149   2.399301   2.393690   0.000000
     6  C    2.554287   2.870509   3.750349   3.897646   1.528781
     7  H    2.088731   3.027405   2.651944   2.447689   1.086234
     8  H    2.111741   3.124969   2.613401   2.328186   1.085817
     9  N    3.097862   3.177750   4.270241   4.505934   2.450868
    10  H    2.827016   2.594797   4.004462   4.431560   2.706935
    11  H    4.011569   3.946885   5.232932   5.483275   3.320660
    12  C    3.843946   4.340473   4.862229   4.761234   2.469268
    13  H    2.728263   2.696002   3.998190   4.312392   2.131099
    14  O    4.644471   5.201849   5.580823   5.378460   3.228635
    15  O    4.295714   4.794603   5.225036   5.090698   3.002638
                    6          7          8          9         10
     6  C    0.000000
     7  H    2.160311   0.000000
     8  H    2.160378   1.744986   0.000000
     9  N    1.456921   3.384349   2.643201   0.000000
    10  H    2.014366   3.713392   3.008251   1.002298   0.000000
    11  H    2.020949   4.141850   3.558505   1.003487   1.602727
    12  C    1.541260   2.590826   2.791577   2.491294   3.345393
    13  H    1.085650   2.510766   3.036393   2.126364   2.352325
    14  O    2.395806   3.485428   3.151537   2.745600   3.734723
    15  O    2.359993   2.668309   3.516110   3.587955   4.322089
                   11         12         13         14         15
    11  H    0.000000
    12  C    2.652670   0.000000
[...]
 ! R13   R(12,14)                1.2416         -DE/DX =    0.0002              !
 ! R14   R(12,15)                1.243          -DE/DX =    0.0                 !
 ! A1    A(2,1,3)              118.6218         -DE/DX =    0.0                 !
 ! A2    A(2,1,5)              125.4222         -DE/DX =    0.0                 !
 ! A3    A(3,1,5)              115.9368         -DE/DX =    0.0                 !
 ! A4    A(1,3,4)              112.1167         -DE/DX =    0.0                 !
 ! A5    A(1,5,6)              113.8905         -DE/DX =    0.0                 !
 ! A6    A(1,5,7)              106.1887         -DE/DX =    0.0                 !
 ! A7    A(1,5,8)              108.2805         -DE/DX =    0.0                 !
 ! A8    A(6,5,7)              110.5872         -DE/DX =    0.0                 !
 ! A9    A(6,5,8)              110.45           -DE/DX =    0.0                 !
 ! A10   A(7,5,8)              107.1393         -DE/DX =    0.0                 !
 ! A11   A(5,6,9)              110.2584         -DE/DX =    0.0                 !
 ! A12   A(5,6,12)             111.2999         -DE/DX =    0.0                 !
 ! A13   A(5,6,13)             107.8752         -DE/DX =    0.0                 !
 ! A14   A(9,6,12)             110.8584         -DE/DX =    0.0                 !
 ! A15   A(9,6,13)             111.856          -DE/DX =    0.0                 !
 ! A16   A(12,6,13)            104.5412         -DE/DX =    0.0                 !
 ! A17   A(6,9,10)             109.1526         -DE/DX =    0.0                 !
 ! A18   A(6,9,11)             108.2033         -DE/DX =    0.0                 !
 ! A19   A(10,9,11)            106.9182         -DE/DX =    0.0                 !
 ! A20   A(6,12,14)            117.3135         -DE/DX =    0.0                 !
 ! A21   A(6,12,15)            117.2499         -DE/DX =    0.0                 !
 ! A22   A(14,12,15)           125.3659         -DE/DX =    0.0                 !
 ! D1    D(2,1,3,4)            179.8632         -DE/DX =    0.0                 !
 ! D2    D(5,1,3,4)              1.3679         -DE/DX =    0.0                 !
 ! D3    D(2,1,5,6)             11.6533         -DE/DX =    0.0                 !
 ! D4    D(2,1,5,7)           -110.2883         -DE/DX =    0.0                 !
 ! D5    D(2,1,5,8)            134.9354         -DE/DX =    0.0                 !
 ! D6    D(3,1,5,6)           -169.9676         -DE/DX =    0.0                 !
 ! D7    D(3,1,5,7)             68.0908         -DE/DX =    0.0                 !
 ! D8    D(3,1,5,8)            -46.6855         -DE/DX =    0.0                 !
 ! D9    D(1,5,6,9)             64.8018         -DE/DX =    0.0                 !
 ! D10   D(1,5,6,12)          -171.7444         -DE/DX =    0.0                 !
 ! D11   D(1,5,6,13)           -57.609          -DE/DX =    0.0                 !
 ! D12   D(7,5,6,9)           -175.719          -DE/DX =    0.0                 !
 ! D13   D(7,5,6,12)           -52.2652         -DE/DX =    0.0                 !
 ! D14   D(7,5,6,13)            61.8702         -DE/DX =    0.0                 !
 ! D15   D(8,5,6,9)            -57.2919         -DE/DX =    0.0                 !
 ! D16   D(8,5,6,12)            66.1619         -DE/DX =    0.0                 !
 ! D17   D(8,5,6,13)          -179.7027         -DE/DX =    0.0                 !
 ! D18   D(5,6,9,10)           -77.3524         -DE/DX =    0.0                 !
 ! D19   D(5,6,9,11)           166.6395         -DE/DX =    0.0                 !
 ! D20   D(12,6,9,10)          158.9374         -DE/DX =    0.0                 !
 ! D21   D(12,6,9,11)           42.9294         -DE/DX =    0.0                 !
 ! D22   D(13,6,9,10)           42.685          -DE/DX =    0.0                 !
 ! D23   D(13,6,9,11)          -73.323          -DE/DX =    0.0                 !
 ! D24   D(5,6,12,14)         -146.8581         -DE/DX =    0.0                 !
 ! D25   D(5,6,12,15)           36.0351         -DE/DX =    0.0                 !
 ! D26   D(9,6,12,14)          -23.7471         -DE/DX =    0.0                 !
 ! D27   D(9,6,12,15)          159.1462         -DE/DX =    0.0                 !
 ! D28   D(13,6,12,14)          96.9435         -DE/DX =    0.0                 !
 ! D29   D(13,6,12,15)         -80.1633         -DE/DX =    0.0                 !
 --------------------------------------------------------------------------------
 GradGradGradGradGradGradGradGradGradGradGradGradGradGradGradGradGradGrad

                          Input orientation:                          
 ---------------------------------------------------------------------
 Center     Atomic      Atomic             Coordinates (Angstroms)
 Number     Number       Type             X           Y           Z
 ---------------------------------------------------------------------
      1          6           0       -2.454655    2.016147   -0.421225
      2          8           0       -2.498979    1.011709   -1.073622
      3          8           0       -1.268601    2.477232   -0.043559
      4          1           0       -1.341248    3.279232    0.467589
      5          6           0       -3.643758    2.842138   -0.009327
      6          6           0       -4.982904    2.158489   -0.250561
      7          1           0       -3.580206    3.765448   -0.573194
      8          1           0       -3.532797    3.099402    1.039110
      9          7           0       -5.101878    0.972101    0.587093
     10          1           0       -4.559750    0.231078    0.186330
     11          1           0       -6.057211    0.674287    0.573449
     12          6           0       -6.154383    3.122451   -0.003710
     13          1           0       -5.047887    1.914669   -1.311098
     14          8           0       -7.203604    2.639217    0.451399
     15          8           0       -5.991219    4.311300   -0.327985
 ---------------------------------------------------------------------
                    Distance matrix (angstroms):
                    1          2          3          4          5
     1  C    0.000000
     2  O    1.198533   0.000000
     3  O    1.327387   2.173158   0.000000
     4  H    1.903956   2.976127   0.953810   0.000000
     5  C    1.505286   2.407013   2.403269   2.391663   0.000000
     6  C    2.537998   2.856994   3.733698   3.877301   1.522788
     7  H    2.085668   3.000426   2.698802   2.516460   1.083737
     8  H    2.113862   3.144976   2.585702   2.271974   1.085227
     9  N    3.019028   3.087819   4.166192   4.413556   2.445172
    10  H    2.826132   2.538433   3.991206   4.441746   2.773978
    11  H    3.970941   3.935442   5.153843   5.388623   3.296052
    12  C    3.884098   4.354528   4.928363   4.838695   2.526231
    13  H    2.743542   2.714528   4.025684   4.331851   2.127530
    14  O    4.868492   5.206531   5.957809   5.897212   3.595268
    15  O    4.217073   4.861996   5.074231   4.829113   2.787571
                    6          7          8          9         10
     6  C    0.000000
     7  H    2.157306   0.000000
     8  H    2.156706   1.745105   0.000000
     9  N    1.457167   3.385932   2.681743   0.000000
    10  H    2.021100   3.745417   3.163724   1.001812   0.000000
    11  H    2.008976   4.123787   3.531386   1.000770   1.608938
    12  C    1.537049   2.713696   2.821474   2.465932   3.307416
    13  H    1.090142   2.474666   3.036868   2.120018   2.305438
    14  O    2.378099   3.930293   3.745931   2.686065   3.585995
    15  O    2.378505   2.484163   3.062921   3.574709   4.354518
                   11         12         13         14         15
    11  H    0.000000
    12  C    2.517153   0.000000
    13  H    2.471598   2.095789   0.000000
    14  O    2.278172   1.241574   2.877235   0.000000
    15  O    3.747640   1.243036   2.756850   2.207528   0.000000
 Stoichiometry    C4H6NO4(1-)
 Framework group  C1[X(C4H6NO4)]
 Deg. of freedom    39
 Full point group                 C1      NOp   1
 Largest Abelian subgroup         C1      NOp   1
 Largest concise Abelian subgroup C1      NOp   1
                         Standard orientation:                         
 ---------------------------------------------------------------------
 Center     Atomic      Atomic             Coordinates (Angstroms)
 Number     Number       Type             X           Y           Z
 ---------------------------------------------------------------------
      1          6           0        1.934372   -0.068501    0.091594
      2          8           0        2.184894    0.873093    0.789534
      3          8           0        2.940406   -0.743063   -0.451377
      4          1           0        2.636757   -1.472606   -0.985529
      5          6           0        0.554500   -0.591080   -0.206318
      6          6           0       -0.566234    0.342686    0.230624
      7          1           0        0.476167   -1.544691    0.302579
      8          1           0        0.488516   -0.790399   -1.271041
      9          7           0       -0.514369    1.584036   -0.530755
     10          1           0        0.218568    2.162205   -0.167227
     11          1           0       -1.373290    2.076456   -0.384752
     12          6           0       -1.940918   -0.329897    0.087821
     13          1           0       -0.457293    0.518261    1.301005
     14          8           0       -2.902408    0.396707   -0.210656
     15          8           0       -2.007787   -1.546326    0.334739
 ---------------------------------------------------------------------
 Rotational constants (GHZ):           3.5130079           0.9179916           0.7856079

 **********************************************************************

            Population analysis using the SCF Density.

 **********************************************************************

 Orbital symmetries:
       Occupied  (A) (A) (A) (A) (A) (A) (A) (A) (A) (A) (A) (A)
                 (A) (A) (A) (A) (A) (A) (A) (A) (A) (A) (A) (A)
                 (A) (A) (A) (A) (A) (A) (A) (A) (A) (A) (A)
       Virtual   (A) (A) (A) (A) (A) (A) (A) (A) (A) (A) (A) (A)
                 (A) (A) (A) (A) (A) (A) (A) (A) (A) (A) (A) (A)
                 (A) (A) (A) (A) (A) (A) (A) (A) (A) (A) (A) (A)
                 (A) (A) (A) (A) (A) (A) (A) (A) (A) (A) (A) (A)
                 (A) (A) (A) (A) (A) (A) (A) (A) (A) (A) (A) (A)
                 (A) (A) (A) (A) (A) (A) (A) (A) (A) (A) (A) (A)
                 (A) (A) (A) (A) (A) (A) (A) (A) (A) (A) (A) (A)
                 (A) (A) (A) (A) (A) (A) (A) (A) (A) (A) (A) (A)
                 (A) (A) (A) (A) (A) (A) (A) (A) (A) (A) (A) (A)
                 (A) (A) (A) (A)
 The electronic state is 1-A.
 Alpha  occ. eigenvalues --  -20.61245 -20.55600 -20.49234 -20.49057 -15.52603
 Alpha  occ. eigenvalues --  -11.38936 -11.32693 -11.24502 -11.22786  -1.47215
 Alpha  occ. eigenvalues --   -1.37957  -1.36989  -1.26976  -1.17668  -1.02926
 Alpha  occ. eigenvalues --   -0.89367  -0.83063  -0.71439  -0.70931  -0.67223
 Alpha  occ. eigenvalues --   -0.66582  -0.65897  -0.62411  -0.60260  -0.58492
 Alpha  occ. eigenvalues --   -0.56847  -0.55395  -0.51584  -0.50944  -0.48435
 Alpha  occ. eigenvalues --   -0.45507  -0.40723  -0.40322  -0.39697  -0.38005
 Alpha virt. eigenvalues --    0.19019   0.23405   0.25063   0.27653   0.30959
 Alpha virt. eigenvalues --    0.32786   0.34200   0.36230   0.41508   0.43330
 Alpha virt. eigenvalues --    0.47311   0.49357   0.49815   0.54106   0.61204
 Alpha virt. eigenvalues --    0.64560   0.74924   0.78316   0.79075   0.82446
 Alpha virt. eigenvalues --    0.86123   0.87534   0.89175   0.92324   0.95819
 Alpha virt. eigenvalues --    0.96388   0.98171   0.98821   1.00373   1.03889
 Alpha virt. eigenvalues --    1.05031   1.09527   1.09956   1.11916   1.13843
 Alpha virt. eigenvalues --    1.17234   1.19739   1.21368   1.22576   1.23364
 Alpha virt. eigenvalues --    1.24545   1.26013   1.28449   1.30572   1.32001
 Alpha virt. eigenvalues --    1.35692   1.37410   1.39548   1.41069   1.45053
 Alpha virt. eigenvalues --    1.47826   1.54528   1.61139   1.66741   1.67714
 Alpha virt. eigenvalues --    1.75188   1.77002   1.80999   1.85018   1.91543
 Alpha virt. eigenvalues --    1.95076   1.98563   2.01202   2.04403   2.05452
 Alpha virt. eigenvalues --    2.07432   2.11059   2.11986   2.14362   2.16732
 Alpha virt. eigenvalues --    2.19080   2.21394   2.21924   2.26006   2.27404
 Alpha virt. eigenvalues --    2.30028   2.33085   2.34590   2.35897   2.42726
 Alpha virt. eigenvalues --    2.45994   2.51170   2.52474   2.61038   2.68153
 Alpha virt. eigenvalues --    2.76682   2.81024   2.82308   2.84984   2.87546
 Alpha virt. eigenvalues --    2.91455   2.97465   3.00965   3.04059   3.08657
 Alpha virt. eigenvalues --    3.14141   3.22966   3.28203   3.30320   3.36373
 Alpha virt. eigenvalues --    3.41160   3.50210   3.58036   4.23346   4.28585
 Alpha virt. eigenvalues --    4.34749   4.54738   4.60111   4.74906   4.83436
 Alpha virt. eigenvalues --    4.91100   5.07388
          Condensed to atoms (all electrons):
               1          2          3          4          5          6
     1  C    4.035505   0.581545   0.304398  -0.018058   0.371173  -0.043522
     2  O    0.581545   8.224012  -0.080197   0.002985  -0.090016   0.007497
     3  O    0.304398  -0.080197   8.339896   0.257912  -0.085277   0.003357
     4  H   -0.018058   0.002985   0.257912   0.229038   0.002210   0.000125
     5  C    0.371173  -0.090016  -0.085277   0.002210   5.404067   0.279112
     6  C   -0.043522   0.007497   0.003357   0.000125   0.279112   5.236390
     7  H   -0.028601   0.000846   0.000306  -0.000095   0.370069  -0.030557
     8  H   -0.029267   0.001602   0.001030   0.000761   0.373004  -0.033696
     9  N   -0.002556  -0.003045  -0.000139  -0.000007  -0.075737   0.237377
    10  H    0.001118   0.007321   0.000024  -0.000010  -0.004629  -0.027416
    11  H   -0.000069   0.000068   0.000002   0.000000   0.006004  -0.037217
    12  C    0.002351   0.000113  -0.000036  -0.000010  -0.037425   0.361397
    13  H   -0.003728   0.003518   0.000047  -0.000005  -0.052533   0.398884
    14  O   -0.000063  -0.000000   0.000000   0.000000   0.002111  -0.118479
    15  O    0.000335   0.000001  -0.000000   0.000001   0.004502  -0.128879
               7          8          9         10         11         12
     1  C   -0.028601  -0.029267  -0.002556   0.001118  -0.000069   0.002351
     2  O    0.000846   0.001602  -0.003045   0.007321   0.000068   0.000113
     3  O    0.000306   0.001030  -0.000139   0.000024   0.000002  -0.000036
     4  H   -0.000095   0.000761  -0.000007  -0.000010   0.000000  -0.000010
     5  C    0.370069   0.373004  -0.075737  -0.004629   0.006004  -0.037425
     6  C   -0.030557  -0.033696   0.237377  -0.027416  -0.037217   0.361397
     7  H    0.446361  -0.013952   0.003477  -0.000115  -0.000100  -0.002866
     8  H   -0.013952   0.465639   0.005716  -0.000113  -0.000110  -0.003062
     9  N    0.003477   0.005716   7.188601   0.322716   0.322199  -0.044347
    10  H   -0.000115  -0.000113   0.322716   0.358251  -0.021483   0.003678
    11  H   -0.000100  -0.000110   0.322199  -0.021483   0.350992  -0.006827
    12  C   -0.002866  -0.003062  -0.044347   0.003678  -0.006827   3.940544
    13  H    0.002156   0.004271  -0.042389  -0.003512   0.000200  -0.029736
    14  O    0.000226   0.000099  -0.005729   0.000119   0.020003   0.525192
    15  O    0.010782   0.001068   0.002301  -0.000081   0.000434   0.498662
              13         14         15
     1  C   -0.003728  -0.000063   0.000335
     2  O    0.003518  -0.000000   0.000001
     3  O    0.000047   0.000000  -0.000000
     4  H   -0.000005   0.000000   0.000001
     5  C   -0.052533   0.002111   0.004502
     6  C    0.398884  -0.118479  -0.128879
     7  H    0.002156   0.000226   0.010782
     8  H    0.004271   0.000099   0.001068
     9  N   -0.042389  -0.005729   0.002301
    10  H   -0.003512   0.000119  -0.000081
    11  H    0.000200   0.020003   0.000434
    12  C   -0.029736   0.525192   0.498662
    13  H    0.528486   0.000145   0.002063
    14  O    0.000145   8.499906  -0.093948
    15  O    0.002063  -0.093948   8.534371
 Mulliken charges:
               1
     1  C    0.829441
     2  O   -0.656250
     3  O   -0.741322
     4  H    0.525153
     5  C   -0.466635
     6  C   -0.104374
     7  H    0.242063
     8  H    0.227010
     9  N   -0.908437
    10  H    0.364134
    11  H    0.365903
    12  C    0.792372
    13  H    0.192133
    14  O   -0.829581
    15  O   -0.831611
 Sum of Mulliken charges =  -1.00000
 Mulliken charges with hydrogens summed into heavy atoms:
               1
     1  C    0.829441
     2  O   -0.656250
     3  O   -0.216169
     5  C    0.002438
     6  C    0.087759
     9  N   -0.178400
    12  C    0.792372
    14  O   -0.829581
    15  O   -0.831611
 Electronic spatial extent (au):  <R**2>=           1402.2860
 Charge=             -1.0000 electrons
 Dipole moment (field-independent basis, Debye):
    X=              9.7966    Y=             -0.5792    Z=             -1.4763  Tot=              9.9241
 Quadrupole moment (field-independent basis, Debye-Ang):
   XX=            -99.9185   YY=            -57.2894   ZZ=            -54.1471
   XY=            -15.2904   XZ=             -7.7258   YZ=              5.1638
 Traceless Quadrupole moment (field-independent basis, Debye-Ang):
   XX=            -29.4669   YY=             13.1623   ZZ=             16.3046
   XY=            -15.2904   XZ=             -7.7258   YZ=              5.1638
 Octapole moment (field-independent basis, Debye-Ang**2):
  XXX=             69.0260  YYY=             13.9875  ZZZ=             -0.8318  XYY=             26.2798
  XXY=             -6.3853  XXZ=            -11.4407  XZZ=              5.5742  YZZ=             -9.2622
  YYZ=             -6.1033  XYZ=             -4.6041
 Hexadecapole moment (field-independent basis, Debye-Ang**3):
 XXXX=          -1673.8399 YYYY=           -319.0265 ZZZZ=           -110.3833 XXXY=            -52.0332
 XXXZ=            -44.6911 YYYX=            -64.1973 YYYZ=             17.4668 ZZZX=            -13.8336
 ZZZY=             12.8354 XXYY=           -284.1392 XXZZ=           -221.6624 YYZZ=            -77.5581
 XXYZ=             16.2265 YYXZ=            -10.9614 ZZXY=            -14.0495
 N-N= 4.532864741171D+02 E-N=-2.119094608221D+03  KE= 5.080568493546D+02
 Unable to Open any file for archive entry.
 1\1\GINC-TERPSICHORE\FOpt\RHF\6-31G(d)\C4H6N1O4(1-)\MASTER9\05-Feb-202
 4\0\\#HF/6-31G* scrf=smd opt\\Deprotonated Aspartate\\-1,1\C,-2.454654
 8888,2.0161469589,-0.4212252147\O,-2.4989792115,1.0117093306,-1.073621
 5186\O,-1.2686008242,2.4772323289,-0.0435590141\H,-1.3412475781,3.2792
 316795,0.4675888937\C,-3.6437580467,2.8421376583,-0.0093267151\C,-4.98
 29043708,2.1584893817,-0.2505609308\H,-3.5802059067,3.7654476726,-0.57
 31940453\H,-3.532797167,3.0994019863,1.0391104577\N,-5.1018780984,0.97
 21009867,0.5870930444\H,-4.5597503116,0.2310783144,0.1863302653\H,-6.0
 572108108,0.6742868059,0.5734487199\C,-6.154382849,3.1224506776,-0.003
 7099669\H,-5.0478868474,1.9146691326,-1.3110977563\O,-7.2036044665,2.6
 392172566,0.4513991976\O,-5.9912186225,4.3112998293,-0.3279854167\\Ver
 sion=EM64L-G16RevC.01\State=1-A\HF=-509.0403327\RMSD=5.461e-09\RMSF=6.
 270e-05\Dipole=3.856165,-0.5982479,0.1292592\Quadrupole=-13.6719238,3.
 6191613,10.0527625,17.5666053,8.8712971,0.686555\PG=C01 [X(C4H6N1O4)]\
 \@
 The archive entry for this job was punched.


 RESEARCH IS WHAT I AM DOING WHEN I DON'T KNOW WHAT I AM DOING.
     -- WERNER VON BRAUN
 Job cpu time:       0 days  1 hours 22 minutes 27.0 seconds.
 Elapsed time:       0 days  0 hours  5 minutes 25.4 seconds.
 File lengths (MBytes):  RWF=     44 Int=      0 D2E=      0 Chk=      5 Scr=      1
 Normal termination of Gaussian 16 at Mon Feb  5 16:15:06 2024.
