 Entering Gaussian System, Link 0=g16
 Input=H2O.com
 Output=H2O.log
 Initial command:
 /usr/local/gaussian/gaussian16.c01-legacy/g16/l1.exe "/scratch/master9/Gau-1213561.inp" -scrdir="/scratch/master9/"
 Entering Link 1 = /usr/local/gaussian/gaussian16.c01-legacy/g16/l1.exe PID=   1213562.
  
 Copyright (c) 1988-2019, Gaussian, Inc.  All Rights Reserved.
  
 This is part of the Gaussian(R) 16 program.  It is based on
 the Gaussian(R) 09 system (copyright 2009, Gaussian, Inc.),
 the Gaussian(R) 03 system (copyright 2003, Gaussian, Inc.),
 the Gaussian(R) 98 system (copyright 1998, Gaussian, Inc.),
 the Gaussian(R) 94 system (copyright 1995, Gaussian, Inc.),
 the Gaussian 92(TM) system (copyright 1992, Gaussian, Inc.),
 the Gaussian 90(TM) system (copyright 1990, Gaussian, Inc.),
 the Gaussian 88(TM) system (copyright 1988, Gaussian, Inc.),
 the Gaussian 86(TM) system (copyright 1986, Carnegie Mellon
 University), and the Gaussian 82(TM) system (copyright 1983,
 Carnegie Mellon University). Gaussian is a federally registered
 trademark of Gaussian, Inc.
  
 This software contains proprietary and confidential information,
 including trade secrets, belonging to Gaussian, Inc.
  
 This software is provided under written license and may be
 used, copied, transmitted, or stored only in accord with that
 written license.
  
 The following legend is applicable only to US Government
 contracts under FAR:
  
                    RESTRICTED RIGHTS LEGEND
  
 Use, reproduction and disclosure by the US Government is
 subject to restrictions as set forth in subparagraphs (a)
 and (c) of the Commercial Computer Software - Restricted
 Rights clause in FAR 52.227-19.
  
 Gaussian, Inc.
 340 Quinnipiac St., Bldg. 40, Wallingford CT 06492
  
  
 ---------------------------------------------------------------
 Warning -- This program may not be used in any manner that
 competes with the business of Gaussian, Inc. or will provide
 assistance to any competitor of Gaussian, Inc.  The licensee
 of this program is prohibited from giving any competitor of
 Gaussian, Inc. access to this program.  By using this program,
 the user acknowledges that Gaussian, Inc. is engaged in the
 business of creating and licensing software in the field of
 computational chemistry and represents and warrants to the
 licensee that it is not a competitor of Gaussian, Inc. and that
 it will not use this program in any manner prohibited above.
 ---------------------------------------------------------------
  

 Cite this work as:
 Gaussian 16, Revision C.01,
 M. J. Frisch, G. W. Trucks, H. B. Schlegel, G. E. Scuseria, 
 M. A. Robb, J. R. Cheeseman, G. Scalmani, V. Barone, 
 G. A. Petersson, H. Nakatsuji, X. Li, M. Caricato, A. V. Marenich, 
 J. Bloino, B. G. Janesko, R. Gomperts, B. Mennucci, H. P. Hratchian, 
 J. V. Ortiz, A. F. Izmaylov, J. L. Sonnenberg, D. Williams-Young, 
 F. Ding, F. Lipparini, F. Egidi, J. Goings, B. Peng, A. Petrone, 
 T. Henderson, D. Ranasinghe, V. G. Zakrzewski, J. Gao, N. Rega, 
 G. Zheng, W. Liang, M. Hada, M. Ehara, K. Toyota, R. Fukuda, 
 J. Hasegawa, M. Ishida, T. Nakajima, Y. Honda, O. Kitao, H. Nakai, 
 T. Vreven, K. Throssell, J. A. Montgomery, Jr., J. E. Peralta, 
 F. Ogliaro, M. J. Bearpark, J. J. Heyd, E. N. Brothers, K. N. Kudin, 
 V. N. Staroverov, T. A. Keith, R. Kobayashi, J. Normand, 
 K. Raghavachari, A. P. Rendell, J. C. Burant, S. S. Iyengar, 
 J. Tomasi, M. Cossi, J. M. Millam, M. Klene, C. Adamo, R. Cammi, 
 J. W. Ochterski, R. L. Martin, K. Morokuma, O. Farkas, 
 J. B. Foresman, and D. J. Fox, Gaussian, Inc., Wallingford CT, 2019.
 
 ******************************************
 Gaussian 16:  EM64L-G16RevC.01  3-Jul-2019
                 2-Feb-2024 
 ******************************************
 %nproc=1
 Will use up to    1 processors via shared memory.
 %chk=H2O
 %Mem=1GB
 ------------------------
 # HF/6-31G* scrf=smd opt
 ------------------------
 1/18=20,19=15,26=6,38=1/1,3;
 2/9=110,12=2,17=6,18=5,40=1/2;
 3/5=1,6=6,7=1,11=9,25=1,30=1,70=32201,71=1/1,2,3;
 4//1;
 5/5=2,38=5/2;
 6/7=2,8=2,9=2,10=2,28=1/1;
 7//1,2,3,16;
 1/18=20,19=15,26=6/3(2);
 2/9=110/2;
 99//99;
 2/9=110/2;
 3/5=1,6=6,7=1,11=9,25=1,30=1,70=32205,71=1/1,2,3;
 4/5=5,16=3,69=1/1;
 5/5=2,38=5/2;
 7//1,2,3,16;
 1/18=20,19=15,26=6/3(-5);
 2/9=110/2;
 6/7=2,8=2,9=2,10=2,19=2,28=1/1;
 99/9=1/99;
 --------------
 Water molecule
 --------------
 Symbolic Z-matrix:
 Charge =  0 Multiplicity = 1
 O                    -1.44889   0.9091    0.01445 
 H                    -0.481     0.87705  -0.01914 
 H                    -1.72774   0.26849  -0.65698 
 

 GradGradGradGradGradGradGradGradGradGradGradGradGradGradGradGradGradGrad
 Berny optimization.
 Initialization pass.
                           ----------------------------
                           !    Initial Parameters    !
                           ! (Angstroms and Degrees)  !
 --------------------------                            --------------------------
 ! Name  Definition              Value          Derivative Info.                !
 --------------------------------------------------------------------------------
 ! R1    R(1,2)                  0.969          estimate D2E/DX2                !
 ! R2    R(1,3)                  0.969          estimate D2E/DX2                !
 ! A1    A(2,1,3)              103.9784         estimate D2E/DX2                !
 --------------------------------------------------------------------------------
 Trust Radius=3.00D-01 FncErr=5.00D-06 GrdErr=5.00D-06 EigMax=2.50D+02 EigMin=1.00D-04
 Number of steps in this run=     20 maximum allowed number of steps=    100.
 GradGradGradGradGradGradGradGradGradGradGradGradGradGradGradGradGradGrad

                          Input orientation:                          
 ---------------------------------------------------------------------
 Center     Atomic      Atomic             Coordinates (Angstroms)
 Number     Number       Type             X           Y           Z
 ---------------------------------------------------------------------
      1          8           0       -1.448890    0.909100    0.014450
      2          1           0       -0.481000    0.877050   -0.019140
      3          1           0       -1.727740    0.268490   -0.656980
 ---------------------------------------------------------------------
                    Distance matrix (angstroms):
                    1          2          3
     1  O    0.000000
     2  H    0.969003   0.000000
     3  H    0.968998   1.526940   0.000000
 Stoichiometry    H2O
 Framework group  CS[SG(H2O)]
 Deg. of freedom     3
 Full point group                 CS      NOp   2
 Largest Abelian subgroup         CS      NOp   2
 Largest concise Abelian subgroup C1      NOp   1
                         Standard orientation:                         
 ---------------------------------------------------------------------
 Center     Atomic      Atomic             Coordinates (Angstroms)
 Number     Number       Type             X           Y           Z
 ---------------------------------------------------------------------
      1          8           0       -0.000000    0.119344    0.000000
      2          1           0        0.763470   -0.477380   -0.000000
      3          1           0       -0.763470   -0.477372   -0.000000
 ---------------------------------------------------------------------
 Rotational constants (GHZ):         792.8768507         430.1481975         278.8614580
 Standard basis: 6-31G(d) (6D, 7F)
 There are    15 symmetry adapted cartesian basis functions of A'  symmetry.
 There are     4 symmetry adapted cartesian basis functions of A"  symmetry.
 There are    15 symmetry adapted basis functions of A'  symmetry.
 There are     4 symmetry adapted basis functions of A"  symmetry.
    19 basis functions,    36 primitive gaussians,    19 cartesian basis functions
     5 alpha electrons        5 beta electrons
       nuclear repulsion energy         9.0842618013 Hartrees.
 NAtoms=    3 NActive=    3 NUniq=    3 SFac= 1.00D+00 NAtFMM=   60 NAOKFM=F Big=F
 Integral buffers will be    131072 words long.
 Raffenetti 1 integral format.
 Two-electron integral symmetry is turned on.
 ------------------------------------------------------------------------------
 Polarizable Continuum Model (PCM)
 =================================
 Model                : PCM.
 Atomic radii         : SMD-Coulomb.
 Polarization charges : Total charges.
 Charge compensation  : None.
 Solution method      : On-the-fly selection.
 Cavity type          : VdW (van der Waals Surface) (Alpha=1.000).
 Cavity algorithm     : GePol (No added spheres)
                        Default sphere list used, NSphG=    3.
                        Lebedev-Laikov grids with approx.  5.0 points / Ang**2.
                        Smoothing algorithm: York/Karplus (Gamma=1.0000).
                        Polarization charges: spherical gaussians, with
                                              point-specific exponents (IZeta= 3).
                        Self-potential: point-specific (ISelfS= 7).
                        Self-field    : sphere-specific E.n sum rule (ISelfD= 2).
 1st derivatives      : Analytical E(r).r(x)/FMM algorithm (CHGder, D1EAlg=3).
                        Cavity 1st derivative terms included.
 Solvent              : Water, Eps=  78.355300 Eps(inf)=   1.777849
 ------------------------------------------------------------------------------
 Spheres list:
 ISph  on   Nord     Re0    Alpha      Xe            Ye            Ze
    1   O      1    1.5200  1.000      0.000000      0.119344     -0.000000
    2   H      2    1.2000  1.000      0.763470     -0.477380     -0.000000
    3   H      3    1.2000  1.000     -0.763470     -0.477372      0.000000
 ------------------------------------------------------------------------------
 ------------------------------------------------------------------------------
 Atomic radii for non-electrostatic terms: SMD-CDS.
 ------------------------------------------------------------------------------
 Nuclear repulsion after PCM non-electrostatic terms =        9.0865448629 Hartrees.
 One-electron integrals computed using PRISM.
 NBasis=    19 RedAO= T EigKep=  2.27D-02  NBF=    15     4
 NBsUse=    19 1.00D-06 EigRej= -1.00D+00 NBFU=    15     4
 ExpMin= 1.61D-01 ExpMax= 5.48D+03 ExpMxC= 8.25D+02 IAcc=3 IRadAn=         5 AccDes= 0.00D+00
 Harris functional with IExCor=  205 and IRadAn=       5 diagonalized for initial guess.
 HarFok:  IExCor=  205 AccDes= 0.00D+00 IRadAn=         5 IDoV= 1 UseB2=F ITyADJ=14
 ICtDFT=  3500011 ScaDFX=  1.000000  1.000000  1.000000  1.000000
 FoFCou: FMM=F IPFlag=           0 FMFlag=      100000 FMFlg1=           0
         NFxFlg=           0 DoJE=T BraDBF=F KetDBF=T FulRan=T
         wScrn=  0.000000 ICntrl=       500 IOpCl=  0 I1Cent=   200000004 NGrid=           0
         NMat0=    1 NMatS0=      1 NMatT0=    0 NMatD0=    1 NMtDS0=    0 NMtDT0=    0
 Petite list used in FoFCou.
 Initial guess orbital symmetries:
       Occupied  (A') (A') (A') (A') (A")
       Virtual   (A') (A') (A') (A') (A") (A') (A') (A') (A') (A")
                 (A") (A') (A') (A')
 The electronic state of the initial guess is 1-A'.
 Keep R1 ints in memory in symmetry-blocked form, NReq=1442655.
 Requested convergence on RMS density matrix=1.00D-08 within 128 cycles.
 Requested convergence on MAX density matrix=1.00D-06.
 Requested convergence on             energy=1.00D-06.
 No special actions if energy rises.
 Inv3:  Mode=1 IEnd=      172800.
 Iteration    1 A*A^-1 deviation from unit magnitude is 2.44D-15 for     19.
 Iteration    1 A*A^-1 deviation from orthogonality  is 1.07D-15 for    163     86.
 Iteration    1 A^-1*A deviation from unit magnitude is 2.22D-15 for     21.
 Iteration    1 A^-1*A deviation from orthogonality  is 8.69D-16 for    208    207.
 Error on total polarization charges =  0.01370
 SCF Done:  E(RHF) =  -76.0246987330     A.U. after   10 cycles
            NFock= 10  Conv=0.18D-08     -V/T= 2.0034
 SMD-CDS (non-electrostatic) energy       (kcal/mol) =       1.43
 (included in total energy above)

 **********************************************************************

            Population analysis using the SCF Density.

 **********************************************************************

 Orbital symmetries:
       Occupied  (A') (A') (A') (A') (A")
       Virtual   (A') (A') (A') (A') (A") (A') (A') (A') (A') (A")
                 (A") (A') (A') (A')
 The electronic state is 1-A'.
 Alpha  occ. eigenvalues --  -20.56137  -1.33549  -0.69650  -0.57886  -0.50355
 Alpha virt. eigenvalues --    0.23493   0.32940   1.01712   1.11347   1.15687
 Alpha virt. eigenvalues --    1.16552   1.37437   1.44247   2.01260   2.02916
 Alpha virt. eigenvalues --    2.05831   2.60500   2.92327   3.95738
          Condensed to atoms (all electrons):
               1          2          3
     1  O    8.434596   0.264434   0.264435
     2  H    0.264434   0.269176  -0.015343
     3  H    0.264435  -0.015343   0.269176
 Mulliken charges:
               1
     1  O   -0.963464
     2  H    0.481732
     3  H    0.481732
 Sum of Mulliken charges =  -0.00000
 Mulliken charges with hydrogens summed into heavy atoms:
               1
     1  O   -0.000000
 Electronic spatial extent (au):  <R**2>=             18.9081
 Charge=             -0.0000 electrons
 Dipole moment (field-independent basis, Debye):
    X=             -0.0000    Y=             -2.6366    Z=              0.0000  Tot=              2.6366
 Quadrupole moment (field-independent basis, Debye-Ang):
   XX=             -3.9022   YY=             -5.9162   ZZ=             -7.2777
   XY=             -0.0000   XZ=             -0.0000   YZ=             -0.0000
 Traceless Quadrupole moment (field-independent basis, Debye-Ang):
   XX=              1.7965   YY=             -0.2175   ZZ=             -1.5790
   XY=             -0.0000   XZ=             -0.0000   YZ=             -0.0000
 Octapole moment (field-independent basis, Debye-Ang**2):
  XXX=             -0.0000  YYY=             -1.8567  ZZZ=              0.0000  XYY=              0.0000
  XXY=             -1.6769  XXZ=              0.0000  XZZ=             -0.0000  YZZ=             -0.4911
  YYZ=              0.0000  XYZ=              0.0000
 Hexadecapole moment (field-independent basis, Debye-Ang**3):
 XXXX=             -5.0146 YYYY=             -6.0236 ZZZZ=             -5.2641 XXXY=             -0.0000
 XXXZ=             -0.0000 YYYX=             -0.0000 YYYZ=             -0.0000 ZZZX=              0.0000
 ZZZY=             -0.0000 XXYY=             -1.4453 XXZZ=             -2.0119 YYZZ=             -1.9394
 XXYZ=             -0.0000 YYXZ=             -0.0000 ZZXY=              0.0000
 N-N= 9.086544862874D+00 E-N=-1.987128432099D+02  KE= 7.576398445822D+01
 Symmetry A'   KE= 7.126920503878D+01
 Symmetry A"   KE= 4.494779419443D+00
 D1PCM: PCM CHGder 1st derivatives, ID1Alg=3 FixD1E=F DoIter=F DoCFld=F I1PDM=0.
 Calling FoFJK, ICntrl=      2127 FMM=F ISym2X=1 I1Cent= 0 IOpClX= 0 NMat=1 NMatS=1 NMatT=0.
 ***** Axes restored to original set *****
 -------------------------------------------------------------------
 Center     Atomic                   Forces (Hartrees/Bohr)
 Number     Number              X              Y              Z
 -------------------------------------------------------------------
      1        8           0.013130435   -0.012813599   -0.013430030
      2        1          -0.018984789    0.000345825    0.000362425
      3        1           0.005854354    0.012467774    0.013067604
 -------------------------------------------------------------------
 Cartesian Forces:  Max     0.018984789 RMS     0.011728961

 GradGradGradGradGradGradGradGradGradGradGradGradGradGradGradGradGradGrad
 Berny optimization.
 FormGI is forming the generalized inverse of G from B-inverse, IUseBI=4.
 Internal  Forces:  Max     0.018986995 RMS     0.015506782
 Search for a local minimum.
 Step number   1 out of a maximum of   20
 All quantities printed in internal units (Hartrees-Bohrs-Radians)
 Mixed Optimization -- RFO/linear search
 Second derivative matrix not updated -- first step.
 The second derivative matrix:
                          R1        R2        A1
           R1           0.53581
           R2           0.00000   0.53582
           A1           0.00000   0.00000   0.16000
 ITU=  0
     Eigenvalues ---    0.16000   0.53581   0.53582
 RFO step:  Lambda=-1.34537337D-03 EMin= 1.60000000D-01
 Linear search not attempted -- first point.
 Iteration  1 RMS(Cart)=  0.02634437 RMS(Int)=  0.00005292
 Iteration  2 RMS(Cart)=  0.00004932 RMS(Int)=  0.00000000
 Iteration  3 RMS(Cart)=  0.00000000 RMS(Int)=  0.00000000
 ClnCor:  largest displacement from symmetrization is 9.16D-16 for atom     3.
 Variable       Old X    -DE/DX   Delta X   Delta X   Delta X     New X
                                 (Linear)    (Quad)   (Total)
    R1        1.83115  -0.01899   0.00000  -0.03535  -0.03535   1.79580
    R2        1.83114  -0.01898   0.00000  -0.03534  -0.03534   1.79580
    A1        1.81476  -0.00075   0.00000  -0.00464  -0.00464   1.81012
         Item               Value     Threshold  Converged?
 Maximum Force            0.018987     0.000450     NO 
 RMS     Force            0.015507     0.000300     NO 
 Maximum Displacement     0.028395     0.001800     NO 
 RMS     Displacement     0.026320     0.001200     NO 
 Predicted change in Energy=-6.743859D-04
 GradGradGradGradGradGradGradGradGradGradGradGradGradGradGradGradGradGrad

                          Input orientation:                          
 ---------------------------------------------------------------------
 Center     Atomic      Atomic             Coordinates (Angstroms)
 Number     Number       Type             X           Y           Z
 ---------------------------------------------------------------------
      1          8           0       -1.445124    0.905426    0.010599
      2          1           0       -0.496026    0.872472   -0.023938
      3          1           0       -1.716480    0.276742   -0.648331
 ---------------------------------------------------------------------
                    Distance matrix (angstroms):
                    1          2          3
     1  O    0.000000
     2  H    0.950298   0.000000
     3  H    0.950298   1.494747   0.000000
 Stoichiometry    H2O
 Framework group  CS[SG(H2O)]
 Deg. of freedom     3
 Full point group                 CS      NOp   2
 Largest Abelian subgroup         CS      NOp   2
 Largest concise Abelian subgroup C1      NOp   1
                         Standard orientation:                         
 ---------------------------------------------------------------------
 Center     Atomic      Atomic             Coordinates (Angstroms)
 Number     Number       Type             X           Y           Z
 ---------------------------------------------------------------------
      1          8           0       -0.000000    0.117388   -0.000000
      2          1           0        0.747374   -0.469552    0.000000
      3          1           0       -0.747374   -0.469553   -0.000000
 ---------------------------------------------------------------------
 Rotational constants (GHZ):         819.5196879         448.8761123         290.0220983
 Standard basis: 6-31G(d) (6D, 7F)
 There are    15 symmetry adapted cartesian basis functions of A'  symmetry.
 There are     4 symmetry adapted cartesian basis functions of A"  symmetry.
 There are    15 symmetry adapted basis functions of A'  symmetry.
 There are     4 symmetry adapted basis functions of A"  symmetry.
    19 basis functions,    36 primitive gaussians,    19 cartesian basis functions
     5 alpha electrons        5 beta electrons
       nuclear repulsion energy         9.2636871476 Hartrees.
 NAtoms=    3 NActive=    3 NUniq=    3 SFac= 1.00D+00 NAtFMM=   60 NAOKFM=F Big=F
 Integral buffers will be    131072 words long.
 Raffenetti 1 integral format.
 Two-electron integral symmetry is turned on.
 ------------------------------------------------------------------------------
 Polarizable Continuum Model (PCM)
 =================================
 Model                : PCM.
 Atomic radii         : SMD-Coulomb.
 Polarization charges : Total charges.
 Charge compensation  : None.
 Solution method      : On-the-fly selection.
 Cavity type          : VdW (van der Waals Surface) (Alpha=1.000).
 Cavity algorithm     : GePol (No added spheres)
                        Default sphere list used, NSphG=    3.
                        Lebedev-Laikov grids with approx.  5.0 points / Ang**2.
                        Smoothing algorithm: York/Karplus (Gamma=1.0000).
                        Polarization charges: spherical gaussians, with
                                              point-specific exponents (IZeta= 3).
                        Self-potential: point-specific (ISelfS= 7).
                        Self-field    : sphere-specific E.n sum rule (ISelfD= 2).
 1st derivatives      : Analytical E(r).r(x)/FMM algorithm (CHGder, D1EAlg=3).
                        Cavity 1st derivative terms included.
 Solvent              : Water, Eps=  78.355300 Eps(inf)=   1.777849
 ------------------------------------------------------------------------------
 Spheres list:
 ISph  on   Nord     Re0    Alpha      Xe            Ye            Ze
    1   O      1    1.5200  1.000      0.000000      0.117388     -0.000000
    2   H      2    1.2000  1.000      0.747374     -0.469552      0.000000
    3   H      3    1.2000  1.000     -0.747374     -0.469553      0.000000
 ------------------------------------------------------------------------------
 ------------------------------------------------------------------------------
 Atomic radii for non-electrostatic terms: SMD-CDS.
 ------------------------------------------------------------------------------
 Nuclear repulsion after PCM non-electrostatic terms =        9.2659363360 Hartrees.
 One-electron integrals computed using PRISM.
 NBasis=    19 RedAO= T EigKep=  2.20D-02  NBF=    15     4
 NBsUse=    19 1.00D-06 EigRej= -1.00D+00 NBFU=    15     4
 Initial guess from the checkpoint file:  "H2O.chk"
 B after Tr=    -0.000000    0.000000    0.000000
         Rot=    1.000000    0.000000    0.000000   -0.000002 Ang=  -0.00 deg.
 Initial guess orbital symmetries:
       Occupied  (A') (A') (A') (A') (A")
       Virtual   (A') (A') (A') (A') (A") (A') (A') (A') (A') (A")
                 (A") (A') (A') (A')
 ExpMin= 1.61D-01 ExpMax= 5.48D+03 ExpMxC= 8.25D+02 IAcc=3 IRadAn=         5 AccDes= 0.00D+00
 Harris functional with IExCor=  205 and IRadAn=       5 diagonalized for initial guess.
 HarFok:  IExCor=  205 AccDes= 0.00D+00 IRadAn=         5 IDoV= 1 UseB2=F ITyADJ=14
 ICtDFT=  3500011 ScaDFX=  1.000000  1.000000  1.000000  1.000000
 FoFCou: FMM=F IPFlag=           0 FMFlag=      100000 FMFlg1=           0
         NFxFlg=           0 DoJE=T BraDBF=F KetDBF=T FulRan=T
         wScrn=  0.000000 ICntrl=       500 IOpCl=  0 I1Cent=   200000004 NGrid=           0
         NMat0=    1 NMatS0=      1 NMatT0=    0 NMatD0=    1 NMtDS0=    0 NMtDT0=    0
 Petite list used in FoFCou.
 Keep R1 ints in memory in symmetry-blocked form, NReq=1442655.
 Requested convergence on RMS density matrix=1.00D-08 within 128 cycles.
 Requested convergence on MAX density matrix=1.00D-06.
 Requested convergence on             energy=1.00D-06.
 No special actions if energy rises.
 Inv3:  Mode=1 IEnd=      172800.
 Iteration    1 A*A^-1 deviation from unit magnitude is 2.66D-15 for     18.
 Iteration    1 A*A^-1 deviation from orthogonality  is 1.18D-15 for     98     74.
 Iteration    1 A^-1*A deviation from unit magnitude is 2.44D-15 for     18.
 Iteration    1 A^-1*A deviation from orthogonality  is 1.02D-15 for    183     90.
 Error on total polarization charges =  0.01346
 SCF Done:  E(RHF) =  -76.0253494767     A.U. after    9 cycles
            NFock=  9  Conv=0.23D-08     -V/T= 2.0025
 SMD-CDS (non-electrostatic) energy       (kcal/mol) =       1.41
 (included in total energy above)
 D1PCM: PCM CHGder 1st derivatives, ID1Alg=3 FixD1E=F DoIter=F DoCFld=F I1PDM=0.
 Calling FoFJK, ICntrl=      2127 FMM=F ISym2X=1 I1Cent= 0 IOpClX= 0 NMat=1 NMatS=1 NMatT=0.
 ***** Axes restored to original set *****
 -------------------------------------------------------------------
 Center     Atomic                   Forces (Hartrees/Bohr)
 Number     Number              X              Y              Z
 -------------------------------------------------------------------
      1        8           0.000297511   -0.000290764   -0.000304752
      2        1           0.000977797    0.000695189    0.000728636
      3        1          -0.001275309   -0.000404425   -0.000423884
 -------------------------------------------------------------------
 Cartesian Forces:  Max     0.001275309 RMS     0.000683607

 GradGradGradGradGradGradGradGradGradGradGradGradGradGradGradGradGradGrad
 Berny optimization.
 Using GEDIIS/GDIIS optimizer.
 FormGI is forming the generalized inverse of G from B-inverse, IUseBI=4.
 Internal  Forces:  Max     0.001894427 RMS     0.001329546
 Search for a local minimum.
 Step number   2 out of a maximum of   20
 All quantities printed in internal units (Hartrees-Bohrs-Radians)
 Mixed Optimization -- RFO/linear search
 Update second derivatives using D2CorX and points    1    2
 DE= -6.51D-04 DEPred=-6.74D-04 R= 9.65D-01
 TightC=F SS=  1.41D+00  RLast= 5.02D-02 DXNew= 5.0454D-01 1.5059D-01
 Trust test= 9.65D-01 RLast= 5.02D-02 DXMaxT set to 3.00D-01
 The second derivative matrix:
                          R1        R2        A1
           R1           0.54784
           R2           0.01202   0.54784
           A1           0.02660   0.02659   0.16451
 ITU=  1  0
 Use linear search instead of GDIIS.
     Eigenvalues ---    0.16097   0.53582   0.56341
 RFO step:  Lambda=-1.93273990D-05 EMin= 1.60966272D-01
 Quartic linear search produced a step of -0.04926.
 Iteration  1 RMS(Cart)=  0.00663942 RMS(Int)=  0.00002302
 Iteration  2 RMS(Cart)=  0.00001818 RMS(Int)=  0.00000000
 Iteration  3 RMS(Cart)=  0.00000000 RMS(Int)=  0.00000000
 ClnCor:  largest displacement from symmetrization is 8.43D-16 for atom     2.
 Variable       Old X    -DE/DX   Delta X   Delta X   Delta X     New X
                                 (Linear)    (Quad)   (Total)
    R1        1.79580   0.00093   0.00174  -0.00072   0.00102   1.79682
    R2        1.79580   0.00093   0.00174  -0.00072   0.00102   1.79682
    A1        1.81012   0.00189   0.00023   0.01091   0.01114   1.82126
         Item               Value     Threshold  Converged?
 Maximum Force            0.001894     0.000450     NO 
 RMS     Force            0.001330     0.000300     NO 
 Maximum Displacement     0.007078     0.001800     NO 
 RMS     Displacement     0.006632     0.001200     NO 
 Predicted change in Energy=-1.159738D-05
 GradGradGradGradGradGradGradGradGradGradGradGradGradGradGradGradGradGrad

                          Input orientation:                          
 ---------------------------------------------------------------------
 Center     Atomic      Atomic             Coordinates (Angstroms)
 Number     Number       Type             X           Y           Z
 ---------------------------------------------------------------------
      1          8           0       -1.443646    0.903983    0.009086
      2          1           0       -0.493759    0.874661   -0.021644
      3          1           0       -1.720225    0.275996   -0.649113
 ---------------------------------------------------------------------
                    Distance matrix (angstroms):
                    1          2          3
     1  O    0.000000
     2  H    0.950836   0.000000
     3  H    0.950836   1.502111   0.000000
 Stoichiometry    H2O
 Framework group  CS[SG(H2O)]
 Deg. of freedom     3
 Full point group                 CS      NOp   2
 Largest Abelian subgroup         CS      NOp   2
 Largest concise Abelian subgroup C1      NOp   1
                         Standard orientation:                         
 ---------------------------------------------------------------------
 Center     Atomic      Atomic             Coordinates (Angstroms)
 Number     Number       Type             X           Y           Z
 ---------------------------------------------------------------------
      1          8           0       -0.000000    0.116620    0.000000
      2          1           0        0.751055   -0.466480    0.000000
      3          1           0       -0.751055   -0.466480   -0.000000
 ---------------------------------------------------------------------
 Rotational constants (GHZ):         830.3517551         444.4859179         289.5111039
 Standard basis: 6-31G(d) (6D, 7F)
 There are    15 symmetry adapted cartesian basis functions of A'  symmetry.
 There are     4 symmetry adapted cartesian basis functions of A"  symmetry.
 There are    15 symmetry adapted basis functions of A'  symmetry.
 There are     4 symmetry adapted basis functions of A"  symmetry.
    19 basis functions,    36 primitive gaussians,    19 cartesian basis functions
     5 alpha electrons        5 beta electrons
       nuclear repulsion energy         9.2569097805 Hartrees.
 NAtoms=    3 NActive=    3 NUniq=    3 SFac= 1.00D+00 NAtFMM=   60 NAOKFM=F Big=F
 Integral buffers will be    131072 words long.
 Raffenetti 1 integral format.
 Two-electron integral symmetry is turned on.
 ------------------------------------------------------------------------------
 Polarizable Continuum Model (PCM)
 =================================
 Model                : PCM.
 Atomic radii         : SMD-Coulomb.
 Polarization charges : Total charges.
 Charge compensation  : None.
 Solution method      : On-the-fly selection.
 Cavity type          : VdW (van der Waals Surface) (Alpha=1.000).
 Cavity algorithm     : GePol (No added spheres)
                        Default sphere list used, NSphG=    3.
                        Lebedev-Laikov grids with approx.  5.0 points / Ang**2.
                        Smoothing algorithm: York/Karplus (Gamma=1.0000).
                        Polarization charges: spherical gaussians, with
                                              point-specific exponents (IZeta= 3).
                        Self-potential: point-specific (ISelfS= 7).
                        Self-field    : sphere-specific E.n sum rule (ISelfD= 2).
 1st derivatives      : Analytical E(r).r(x)/FMM algorithm (CHGder, D1EAlg=3).
                        Cavity 1st derivative terms included.
 Solvent              : Water, Eps=  78.355300 Eps(inf)=   1.777849
 ------------------------------------------------------------------------------
 Spheres list:
 ISph  on   Nord     Re0    Alpha      Xe            Ye            Ze
    1   O      1    1.5200  1.000     -0.000000      0.116620      0.000000
    2   H      2    1.2000  1.000      0.751055     -0.466480      0.000000
    3   H      3    1.2000  1.000     -0.751055     -0.466480     -0.000000
 ------------------------------------------------------------------------------
 ------------------------------------------------------------------------------
 Atomic radii for non-electrostatic terms: SMD-CDS.
 ------------------------------------------------------------------------------
 Nuclear repulsion after PCM non-electrostatic terms =        9.2591625800 Hartrees.
 One-electron integrals computed using PRISM.
 NBasis=    19 RedAO= T EigKep=  2.20D-02  NBF=    15     4
 NBsUse=    19 1.00D-06 EigRej= -1.00D+00 NBFU=    15     4
 Initial guess from the checkpoint file:  "H2O.chk"
 B after Tr=     0.000000   -0.000000   -0.000000
         Rot=    1.000000   -0.000000    0.000000    0.000000 Ang=   0.00 deg.
 Initial guess orbital symmetries:
       Occupied  (A') (A') (A') (A') (A")
       Virtual   (A') (A') (A') (A') (A") (A') (A') (A') (A') (A")
                 (A") (A') (A') (A')
 Keep R1 ints in memory in symmetry-blocked form, NReq=1442939.
 Requested convergence on RMS density matrix=1.00D-08 within 128 cycles.
 Requested convergence on MAX density matrix=1.00D-06.
 Requested convergence on             energy=1.00D-06.
 No special actions if energy rises.
 Inv3:  Mode=1 IEnd=      178608.
 Iteration    1 A*A^-1 deviation from unit magnitude is 2.66D-15 for     20.
 Iteration    1 A*A^-1 deviation from orthogonality  is 1.60D-15 for    200     44.
 Iteration    1 A^-1*A deviation from unit magnitude is 2.44D-15 for     20.
 Iteration    1 A^-1*A deviation from orthogonality  is 8.33D-16 for    204    136.
 Error on total polarization charges =  0.01347
 SCF Done:  E(RHF) =  -76.0253597905     A.U. after    7 cycles
            NFock=  7  Conv=0.93D-08     -V/T= 2.0025
 SMD-CDS (non-electrostatic) energy       (kcal/mol) =       1.41
 (included in total energy above)
 D1PCM: PCM CHGder 1st derivatives, ID1Alg=3 FixD1E=F DoIter=F DoCFld=F I1PDM=0.
 Calling FoFJK, ICntrl=      2127 FMM=F ISym2X=1 I1Cent= 0 IOpClX= 0 NMat=1 NMatS=1 NMatT=0.
 ***** Axes restored to original set *****
 -------------------------------------------------------------------
 Center     Atomic                   Forces (Hartrees/Bohr)
 Number     Number              X              Y              Z
 -------------------------------------------------------------------
      1        8          -0.000132838    0.000129619    0.000135855
      2        1           0.000029446   -0.000082874   -0.000086861
      3        1           0.000103392   -0.000046745   -0.000048994
 -------------------------------------------------------------------
 Cartesian Forces:  Max     0.000135855 RMS     0.000096297

 GradGradGradGradGradGradGradGradGradGradGradGradGradGradGradGradGradGrad
 Berny optimization.
 Using GEDIIS/GDIIS optimizer.
 FormGI is forming the generalized inverse of G from B-inverse, IUseBI=4.
 Internal  Forces:  Max     0.000213136 RMS     0.000126282
 Search for a local minimum.
 Step number   3 out of a maximum of   20
 All quantities printed in internal units (Hartrees-Bohrs-Radians)
 Mixed Optimization -- En-DIIS/RFO-DIIS
 Update second derivatives using D2CorX and points    1    2    3
 DE= -1.03D-05 DEPred=-1.16D-05 R= 8.89D-01
 TightC=F SS=  1.41D+00  RLast= 1.12D-02 DXNew= 5.0454D-01 3.3689D-02
 Trust test= 8.89D-01 RLast= 1.12D-02 DXMaxT set to 3.00D-01
 The second derivative matrix:
                          R1        R2        A1
           R1           0.54822
           R2           0.01240   0.54822
           A1           0.02883   0.02882   0.18397
 ITU=  1  1  0
 Use linear search instead of GDIIS.
     Eigenvalues ---    0.17961   0.53582   0.56498
 RFO step:  Lambda=-5.42964804D-08 EMin= 1.79612210D-01
 Quartic linear search produced a step of -0.09159.
 Iteration  1 RMS(Cart)=  0.00063651 RMS(Int)=  0.00000027
 Iteration  2 RMS(Cart)=  0.00000026 RMS(Int)=  0.00000000
 ClnCor:  largest displacement from symmetrization is 2.09D-15 for atom     2.
 Variable       Old X    -DE/DX   Delta X   Delta X   Delta X     New X
                                 (Linear)    (Quad)   (Total)
    R1        1.79682   0.00003  -0.00009   0.00022   0.00012   1.79694
    R2        1.79682   0.00003  -0.00009   0.00022   0.00012   1.79694
    A1        1.82126  -0.00021  -0.00102  -0.00018  -0.00120   1.82005
         Item               Value     Threshold  Converged?
 Maximum Force            0.000213     0.000450     YES
 RMS     Force            0.000126     0.000300     YES
 Maximum Displacement     0.000641     0.001800     YES
 RMS     Displacement     0.000637     0.001200     YES
 Predicted change in Energy=-1.318747D-07
 Optimization completed.
    -- Stationary point found.
                           ----------------------------
                           !   Optimized Parameters   !
                           ! (Angstroms and Degrees)  !
 --------------------------                            --------------------------
 ! Name  Definition              Value          Derivative Info.                !
 --------------------------------------------------------------------------------
 ! R1    R(1,2)                  0.9508         -DE/DX =    0.0                 !
 ! R2    R(1,3)                  0.9508         -DE/DX =    0.0                 !
 ! A1    A(2,1,3)              104.3504         -DE/DX =   -0.0002              !
 --------------------------------------------------------------------------------
 GradGradGradGradGradGradGradGradGradGradGradGradGradGradGradGradGradGrad

                          Input orientation:                          
 ---------------------------------------------------------------------
 Center     Atomic      Atomic             Coordinates (Angstroms)
 Number     Number       Type             X           Y           Z
 ---------------------------------------------------------------------
      1          8           0       -1.443646    0.903983    0.009086
      2          1           0       -0.493759    0.874661   -0.021644
      3          1           0       -1.720225    0.275996   -0.649113
 ---------------------------------------------------------------------
                    Distance matrix (angstroms):
                    1          2          3
     1  O    0.000000
     2  H    0.950836   0.000000
     3  H    0.950836   1.502111   0.000000
 Stoichiometry    H2O
 Framework group  CS[SG(H2O)]
 Deg. of freedom     3
 Full point group                 CS      NOp   2
 Largest Abelian subgroup         CS      NOp   2
 Largest concise Abelian subgroup C1      NOp   1
                         Standard orientation:                         
 ---------------------------------------------------------------------
 Center     Atomic      Atomic             Coordinates (Angstroms)
 Number     Number       Type             X           Y           Z
 ---------------------------------------------------------------------
      1          8           0        0.000000    0.116620    0.000000
      2          1           0        0.751055   -0.466480    0.000000
      3          1           0       -0.751055   -0.466480   -0.000000
 ---------------------------------------------------------------------
 Rotational constants (GHZ):         830.3517551         444.4859179         289.5111039

 **********************************************************************

            Population analysis using the SCF Density.

 **********************************************************************

 Orbital symmetries:
       Occupied  (A') (A') (A') (A') (A")
       Virtual   (A') (A') (A') (A') (A") (A') (A') (A') (A') (A")
                 (A") (A') (A') (A')
 The electronic state is 1-A'.
 Alpha  occ. eigenvalues --  -20.55811  -1.34443  -0.70713  -0.58173  -0.50477
 Alpha virt. eigenvalues --    0.23893   0.33454   1.02545   1.11424   1.15696
 Alpha virt. eigenvalues --    1.18642   1.38143   1.44238   2.00899   2.02459
 Alpha virt. eigenvalues --    2.05559   2.62801   2.95554   3.96748
          Condensed to atoms (all electrons):
               1          2          3
     1  O    8.423427   0.268855   0.268855
     2  H    0.268855   0.266081  -0.015505
     3  H    0.268855  -0.015505   0.266081
 Mulliken charges:
               1
     1  O   -0.961138
     2  H    0.480569
     3  H    0.480569
 Sum of Mulliken charges =  -0.00000
 Mulliken charges with hydrogens summed into heavy atoms:
               1
     1  O   -0.000000
 Electronic spatial extent (au):  <R**2>=             18.6908
 Charge=             -0.0000 electrons
 Dipole moment (field-independent basis, Debye):
    X=              0.0000    Y=             -2.5966    Z=             -0.0000  Tot=              2.5966
 Quadrupole moment (field-independent basis, Debye-Ang):
   XX=             -3.9396   YY=             -5.9281   ZZ=             -7.2401
   XY=              0.0000   XZ=              0.0000   YZ=             -0.0000
 Traceless Quadrupole moment (field-independent basis, Debye-Ang):
   XX=              1.7630   YY=             -0.2255   ZZ=             -1.5375
   XY=              0.0000   XZ=              0.0000   YZ=             -0.0000
 Octapole moment (field-independent basis, Debye-Ang**2):
  XXX=              0.0000  YYY=             -1.8349  ZZZ=             -0.0000  XYY=             -0.0000
  XXY=             -1.6049  XXZ=             -0.0000  XZZ=              0.0000  YZZ=             -0.4956
  YYZ=             -0.0000  XYZ=             -0.0000
 Hexadecapole moment (field-independent basis, Debye-Ang**3):
 XXXX=             -4.9259 YYYY=             -5.9223 ZZZZ=             -5.2233 XXXY=              0.0000
 XXXZ=             -0.0000 YYYX=              0.0000 YYYZ=             -0.0000 ZZZX=             -0.0000
 ZZZY=             -0.0000 XXYY=             -1.4474 XXZZ=             -1.9706 YYZZ=             -1.9106
 XXYZ=             -0.0000 YYXZ=             -0.0000 ZZXY=             -0.0000
 N-N= 9.259162579999D+00 E-N=-1.990841067868D+02  KE= 7.583504904427D+01
 Symmetry A'   KE= 7.134127659994D+01
 Symmetry A"   KE= 4.493772444336D+00
 Unable to Open any file for archive entry.
 1\1\GINC-TERPSICHORE\FOpt\RHF\6-31G(d)\H2O1\MASTER9\02-Feb-2024\0\\# H
 F/6-31G* scrf=smd opt\\Water molecule\\0,1\O,-1.443645845,0.9039826098
 ,0.0090864249\H,-0.4937588702,0.8746613006,-0.0216436438\H,-1.72022528
 47,0.2759960895,-0.6491127811\\Version=EM64L-G16RevC.01\State=1-A'\HF=
 -76.0253598\RMSD=9.284e-09\RMSF=9.630e-05\Dipole=0.5898048,-0.5757893,
 -0.6034891\Quadrupole=0.8179407,-0.4434409,-0.3744999,0.481088,0.50423
 68,0.7333106\PG=CS [SG(H2O1)]\\@
 The archive entry for this job was punched.


 ON A CLEAR DISK YOU CAN SEEK FOREVER.
 Job cpu time:       0 days  0 hours  0 minutes  6.3 seconds.
 Elapsed time:       0 days  0 hours  0 minutes  6.4 seconds.
 File lengths (MBytes):  RWF=      6 Int=      0 D2E=      0 Chk=      2 Scr=      1
 Normal termination of Gaussian 16 at Fri Feb  2 14:44:56 2024.
