 Entering Gaussian System, Link 0=g16
 Input=TYR.com
 Output=TYR.log
 Initial command:
 /apps/versions/2023.01/rocky8/x86_64/generic/software/Gaussian/16.B.01/g16/l1.exe "/home3/p315462/Project/evb_solvent/reactant/TYR/Gau-1188045.inp" -scrdir="/home3/p315462/Project/evb_solvent/reactant/TYR/"
 Entering Link 1 = /apps/versions/2023.01/rocky8/x86_64/generic/software/Gaussian/16.B.01/g16/l1.exe PID=   1188046.
  
 Copyright (c) 1988-2017, Gaussian, Inc.  All Rights Reserved.
  
 This is part of the Gaussian(R) 16 program.  It is based on
 the Gaussian(R) 09 system (copyright 2009, Gaussian, Inc.),
 the Gaussian(R) 03 system (copyright 2003, Gaussian, Inc.),
 the Gaussian(R) 98 system (copyright 1998, Gaussian, Inc.),
 the Gaussian(R) 94 system (copyright 1995, Gaussian, Inc.),
 the Gaussian 92(TM) system (copyright 1992, Gaussian, Inc.),
 the Gaussian 90(TM) system (copyright 1990, Gaussian, Inc.),
 the Gaussian 88(TM) system (copyright 1988, Gaussian, Inc.),
 the Gaussian 86(TM) system (copyright 1986, Carnegie Mellon
 University), and the Gaussian 82(TM) system (copyright 1983,
 Carnegie Mellon University). Gaussian is a federally registered
 trademark of Gaussian, Inc.
  
 This software contains proprietary and confidential information,
 including trade secrets, belonging to Gaussian, Inc.
  
 This software is provided under written license and may be
 used, copied, transmitted, or stored only in accord with that
 written license.
  
 The following legend is applicable only to US Government
 contracts under FAR:
  
                    RESTRICTED RIGHTS LEGEND
  
 Use, reproduction and disclosure by the US Government is
 subject to restrictions as set forth in subparagraphs (a)
 and (c) of the Commercial Computer Software - Restricted
 Rights clause in FAR 52.227-19.
  
 Gaussian, Inc.
 340 Quinnipiac St., Bldg. 40, Wallingford CT 06492
  
  
 ---------------------------------------------------------------
 Warning -- This program may not be used in any manner that
 competes with the business of Gaussian, Inc. or will provide
 assistance to any competitor of Gaussian, Inc.  The licensee
 of this program is prohibited from giving any competitor of
 Gaussian, Inc. access to this program.  By using this program,
 the user acknowledges that Gaussian, Inc. is engaged in the
 business of creating and licensing software in the field of
 computational chemistry and represents and warrants to the
 licensee that it is not a competitor of Gaussian, Inc. and that
 it will not use this program in any manner prohibited above.
 ---------------------------------------------------------------
  

 Cite this work as:
 Gaussian 16, Revision B.01,
 M. J. Frisch, G. W. Trucks, H. B. Schlegel, G. E. Scuseria, 
 M. A. Robb, J. R. Cheeseman, G. Scalmani, V. Barone, 
 G. A. Petersson, H. Nakatsuji, X. Li, M. Caricato, A. V. Marenich, 
 J. Bloino, B. G. Janesko, R. Gomperts, B. Mennucci, H. P. Hratchian, 
 J. V. Ortiz, A. F. Izmaylov, J. L. Sonnenberg, D. Williams-Young, 
 F. Ding, F. Lipparini, F. Egidi, J. Goings, B. Peng, A. Petrone, 
 T. Henderson, D. Ranasinghe, V. G. Zakrzewski, J. Gao, N. Rega, 
 G. Zheng, W. Liang, M. Hada, M. Ehara, K. Toyota, R. Fukuda, 
 J. Hasegawa, M. Ishida, T. Nakajima, Y. Honda, O. Kitao, H. Nakai, 
 T. Vreven, K. Throssell, J. A. Montgomery, Jr., J. E. Peralta, 
 F. Ogliaro, M. J. Bearpark, J. J. Heyd, E. N. Brothers, K. N. Kudin, 
 V. N. Staroverov, T. A. Keith, R. Kobayashi, J. Normand, 
 K. Raghavachari, A. P. Rendell, J. C. Burant, S. S. Iyengar, 
 J. Tomasi, M. Cossi, J. M. Millam, M. Klene, C. Adamo, R. Cammi, 
 J. W. Ochterski, R. L. Martin, K. Morokuma, O. Farkas, 
 J. B. Foresman, and D. J. Fox, Gaussian, Inc., Wallingford CT, 2016.
 
 ******************************************
 Gaussian 16:  ES64L-G16RevB.01 20-Dec-2017
                27-Mar-2024 
 ******************************************
 %Mem=8192MB
 %NProcShared=8
 Will use up to    8 processors via shared memory.
 %chk=098457434.chk
 ----------------------------------
 #P B3LYP/6-31g* Opt=(MaxCycle=900)
 ----------------------------------
 1/6=900,18=20,19=15,26=3,38=1/1,3;
 2/9=110,12=2,17=6,18=5,40=1/2;
 3/5=1,6=6,7=1,11=2,25=1,30=1,71=1,74=-5/1,2,3;
 4//1;
 5/5=2,38=5/2;
 6/7=2,8=2,9=2,10=2,28=1/1;
 7//1,2,3,16;
 1/6=900,18=20,19=15,26=3/3(2);
 2/9=110/2;
 99//99;
 2/9=110/2;
 3/5=1,6=6,7=1,11=2,25=1,30=1,71=1,74=-5/1,2,3;
 4/5=5,16=3,69=1/1;
 5/5=2,38=5/2;
 7//1,2,3,16;
 1/6=900,18=20,19=15,26=3/3(-5);
 2/9=110/2;
 6/7=2,8=2,9=2,10=2,19=2,28=1/1;
 99/9=1/99;
 Leave Link    1 at Wed Mar 27 14:14:03 2024, MaxMem=  1073741824 cpu:               0.4 elap:               0.2
 (Enter /apps/versions/2023.01/rocky8/x86_64/generic/software/Gaussian/16.B.01/g16/l101.exe)
 --------
 Tyrosine
 --------
 Symbolic Z-matrix:
 Charge =  0 Multiplicity = 1
 C                    -2.67      5.004    -2.696 
 H                    -3.341     5.67     -3.23 
 C                    -3.176     4.076    -1.784 
 H                    -4.246     4.017    -1.605 
 C                    -1.292     5.063    -2.915 
 H                    -0.884     5.778    -3.624 
 C                    -2.326     3.213    -1.089 
 H                    -2.731     2.495    -0.38 
 C                    -0.43      4.208    -2.232 
 H                     0.643     4.238    -2.401 
 C                    -0.944     3.281    -1.316 
 O                    -0.06      2.465    -0.668 
 H                    -0.523     1.815    -0.042 
 
 ITRead=  0  0  0  0  0  0  0  0  0  0  0  0  0
 MicOpt= -1 -1 -1 -1 -1 -1 -1 -1 -1 -1 -1 -1 -1
 NAtoms=     13 NQM=       13 NQMF=       0 NMMI=      0 NMMIF=      0
                NMic=       0 NMicF=      0.
                    Isotopes and Nuclear Properties:
 (Nuclear quadrupole moments (NQMom) in fm**2, nuclear magnetic moments (NMagM)
  in nuclear magnetons)

  Atom         1           2           3           4           5           6           7           8           9          10
 IAtWgt=          12           1          12           1          12           1          12           1          12           1
 AtmWgt=  12.0000000   1.0078250  12.0000000   1.0078250  12.0000000   1.0078250  12.0000000   1.0078250  12.0000000   1.0078250
 NucSpn=           0           1           0           1           0           1           0           1           0           1
 AtZEff=  -0.0000000  -0.0000000  -0.0000000  -0.0000000  -0.0000000  -0.0000000  -0.0000000  -0.0000000  -0.0000000  -0.0000000
 NQMom=    0.0000000   0.0000000   0.0000000   0.0000000   0.0000000   0.0000000   0.0000000   0.0000000   0.0000000   0.0000000
 NMagM=    0.0000000   2.7928460   0.0000000   2.7928460   0.0000000   2.7928460   0.0000000   2.7928460   0.0000000   2.7928460
 AtZNuc=   6.0000000   1.0000000   6.0000000   1.0000000   6.0000000   1.0000000   6.0000000   1.0000000   6.0000000   1.0000000

  Atom        11          12          13
 IAtWgt=          12          16           1
 AtmWgt=  12.0000000  15.9949146   1.0078250
 NucSpn=           0           0           1
 AtZEff=  -0.0000000  -0.0000000  -0.0000000
 NQMom=    0.0000000   0.0000000   0.0000000
 NMagM=    0.0000000   0.0000000   2.7928460
 AtZNuc=   6.0000000   8.0000000   1.0000000
 Leave Link  101 at Wed Mar 27 14:14:06 2024, MaxMem=  1073741824 cpu:               4.9 elap:               2.4
 (Enter /apps/versions/2023.01/rocky8/x86_64/generic/software/Gaussian/16.B.01/g16/l103.exe)

 GradGradGradGradGradGradGradGradGradGradGradGradGradGradGradGradGradGrad
 Berny optimization.
 Initialization pass.
                           ----------------------------
                           !    Initial Parameters    !
                           ! (Angstroms and Degrees)  !
 --------------------------                            --------------------------
 ! Name  Definition              Value          Derivative Info.                !
 --------------------------------------------------------------------------------
 ! R1    R(1,2)                  1.0858         estimate D2E/DX2                !
 ! R2    R(1,3)                  1.3961         estimate D2E/DX2                !
 ! R3    R(1,5)                  1.3965         estimate D2E/DX2                !
 ! R4    R(3,4)                  1.0865         estimate D2E/DX2                !
 ! R5    R(3,7)                  1.3965         estimate D2E/DX2                !
 ! R6    R(5,6)                  1.0864         estimate D2E/DX2                !
 ! R7    R(5,9)                  1.393          estimate D2E/DX2                !
 ! R8    R(7,8)                  1.0873         estimate D2E/DX2                !
 ! R9    R(7,11)                 1.4022         estimate D2E/DX2                !
 ! R10   R(9,10)                 1.0866         estimate D2E/DX2                !
 ! R11   R(9,11)                 1.4009         estimate D2E/DX2                !
 ! R12   R(11,12)                1.3665         estimate D2E/DX2                !
 ! R13   R(12,13)                1.0143         estimate D2E/DX2                !
 ! A1    A(2,1,3)              120.3329         estimate D2E/DX2                !
 ! A2    A(2,1,5)              120.4469         estimate D2E/DX2                !
 ! A3    A(3,1,5)              119.22           estimate D2E/DX2                !
 ! A4    A(1,3,4)              120.0451         estimate D2E/DX2                !
 ! A5    A(1,3,7)              121.0161         estimate D2E/DX2                !
 ! A6    A(4,3,7)              118.9388         estimate D2E/DX2                !
 ! A7    A(1,5,6)              120.0456         estimate D2E/DX2                !
 ! A8    A(1,5,9)              120.5147         estimate D2E/DX2                !
 ! A9    A(6,5,9)              119.4396         estimate D2E/DX2                !
 ! A10   A(3,7,8)              120.3891         estimate D2E/DX2                !
 ! A11   A(3,7,11)             119.2986         estimate D2E/DX2                !
 ! A12   A(8,7,11)             120.3123         estimate D2E/DX2                !
 ! A13   A(5,9,10)             121.1864         estimate D2E/DX2                !
 ! A14   A(5,9,11)             119.9788         estimate D2E/DX2                !
 ! A15   A(10,9,11)            118.8328         estimate D2E/DX2                !
 ! A16   A(7,11,9)             119.9714         estimate D2E/DX2                !
 ! A17   A(7,11,12)            122.1332         estimate D2E/DX2                !
 ! A18   A(9,11,12)            117.8954         estimate D2E/DX2                !
 ! A19   A(11,12,13)           112.3377         estimate D2E/DX2                !
 ! D1    D(2,1,3,4)             -0.0031         estimate D2E/DX2                !
 ! D2    D(2,1,3,7)           -179.9728         estimate D2E/DX2                !
 ! D3    D(5,1,3,4)           -179.8591         estimate D2E/DX2                !
 ! D4    D(5,1,3,7)              0.1712         estimate D2E/DX2                !
 ! D5    D(2,1,5,6)             -0.0417         estimate D2E/DX2                !
 ! D6    D(2,1,5,9)           -179.9136         estimate D2E/DX2                !
 ! D7    D(3,1,5,6)            179.8141         estimate D2E/DX2                !
 ! D8    D(3,1,5,9)             -0.0578         estimate D2E/DX2                !
 ! D9    D(1,3,7,8)            179.9187         estimate D2E/DX2                !
 ! D10   D(1,3,7,11)            -0.1453         estimate D2E/DX2                !
 ! D11   D(4,3,7,8)             -0.0512         estimate D2E/DX2                !
 ! D12   D(4,3,7,11)           179.8848         estimate D2E/DX2                !
 ! D13   D(1,5,9,10)           179.4066         estimate D2E/DX2                !
 ! D14   D(1,5,9,11)            -0.0792         estimate D2E/DX2                !
 ! D15   D(6,5,9,10)            -0.466          estimate D2E/DX2                !
 ! D16   D(6,5,9,11)          -179.9518         estimate D2E/DX2                !
 ! D17   D(3,7,11,9)             0.0059         estimate D2E/DX2                !
 ! D18   D(3,7,11,12)          179.9857         estimate D2E/DX2                !
 ! D19   D(8,7,11,9)           179.942          estimate D2E/DX2                !
 ! D20   D(8,7,11,12)           -0.0783         estimate D2E/DX2                !
 ! D21   D(5,9,11,7)             0.1052         estimate D2E/DX2                !
 ! D22   D(5,9,11,12)         -179.8755         estimate D2E/DX2                !
 ! D23   D(10,9,11,7)         -179.3927         estimate D2E/DX2                !
 ! D24   D(10,9,11,12)           0.6267         estimate D2E/DX2                !
 ! D25   D(7,11,12,13)           1.2918         estimate D2E/DX2                !
 ! D26   D(9,11,12,13)        -178.728          estimate D2E/DX2                !
 --------------------------------------------------------------------------------
 Trust Radius=3.00D-01 FncErr=1.00D-07 GrdErr=1.00D-06 EigMax=2.50D+02 EigMin=1.00D-04
 Number of steps in this run=    100 maximum allowed number of steps=    100.
 GradGradGradGradGradGradGradGradGradGradGradGradGradGradGradGradGradGrad

 Leave Link  103 at Wed Mar 27 14:14:06 2024, MaxMem=  1073741824 cpu:               0.1 elap:               0.0
 (Enter /apps/versions/2023.01/rocky8/x86_64/generic/software/Gaussian/16.B.01/g16/l202.exe)
                          Input orientation:                          
 ---------------------------------------------------------------------
 Center     Atomic      Atomic             Coordinates (Angstroms)
 Number     Number       Type             X           Y           Z
 ---------------------------------------------------------------------
      1          6           0       -2.670000    5.004000   -2.696000
      2          1           0       -3.341000    5.670000   -3.230000
      3          6           0       -3.176000    4.076000   -1.784000
      4          1           0       -4.246000    4.017000   -1.605000
      5          6           0       -1.292000    5.063000   -2.915000
      6          1           0       -0.884000    5.778000   -3.624000
      7          6           0       -2.326000    3.213000   -1.089000
      8          1           0       -2.731000    2.495000   -0.380000
      9          6           0       -0.430000    4.208000   -2.232000
     10          1           0        0.643000    4.238000   -2.401000
     11          6           0       -0.944000    3.281000   -1.316000
     12          8           0       -0.060000    2.465000   -0.668000
     13          1           0       -0.523000    1.815000   -0.042000
 ---------------------------------------------------------------------
                    Distance matrix (angstroms):
                    1          2          3          4          5
     1  C    0.000000
     2  H    1.085796   0.000000
     3  C    1.396053   2.158466   0.000000
     4  H    2.155974   2.488385   1.086472   0.000000
     5  C    1.396541   2.160110   2.408897   3.396518   0.000000
     6  H    2.156399   2.490733   3.396420   4.298898   1.086448
     7  C    2.430734   3.413350   1.396529   2.144545   2.797487
     8  H    3.415063   4.309898   2.160741   2.472313   3.884787
     9  C    2.422088   3.406959   2.785434   3.871881   1.393039
    10  H    3.413173   4.313945   3.871911   4.958304   2.165421
    11  C    2.802179   3.887972   2.415134   3.395353   2.419386
    12  O    4.167902   5.253649   3.681064   4.561718   3.649169
    13  H    4.671514   5.741558   3.896806   4.599185   4.403975
                    6          7          8          9         10
     6  H    0.000000
     7  C    3.883917   0.000000
     8  H    4.971221   1.087304   0.000000
     9  C    2.146784   2.427198   3.414509   0.000000
    10  H    2.489791   3.403958   4.301903   1.086642   0.000000
    11  C    3.400805   1.402169   2.165008   1.400921   2.147474
    12  O    4.515848   2.423118   2.686649   2.370874   2.577019
    13  H    5.354103   2.510263   2.334932   3.245181   3.577061
                   11         12         13
    11  C    0.000000
    12  O    1.366461   0.000000
    13  H    1.987328   1.014271   0.000000
 Stoichiometry    C6H6O
 Framework group  C1[X(C6H6O)]
 Deg. of freedom    33
 Full point group                 C1      NOp   1
 Largest Abelian subgroup         C1      NOp   1
 Largest concise Abelian subgroup C1      NOp   1
                         Standard orientation:                         
 ---------------------------------------------------------------------
 Center     Atomic      Atomic             Coordinates (Angstroms)
 Number     Number       Type             X           Y           Z
 ---------------------------------------------------------------------
      1          6           0       -1.859396    0.040623   -0.000821
      2          1           0       -2.944723    0.072497   -0.000035
      3          6           0       -1.119286    1.224346    0.000898
      4          1           0       -1.628344    2.184178    0.002984
      5          6           0       -1.187361   -1.183589   -0.000498
      6          1           0       -1.750003   -2.112998    0.001230
      7          6           0        0.277030    1.199999   -0.000650
      8          1           0        0.843333    2.128186   -0.000617
      9          6           0        0.205028   -1.226131    0.000304
     10          1           0        0.739062   -2.172439    0.010189
     11          6           0        0.941774   -0.034583   -0.000884
     12          8           0        2.305176   -0.125942   -0.002657
     13          1           0        2.752538    0.784118    0.017412
 ---------------------------------------------------------------------
 Rotational constants (GHZ):           5.6400469           2.6062360           1.7825426
 Leave Link  202 at Wed Mar 27 14:14:06 2024, MaxMem=  1073741824 cpu:               0.0 elap:               0.0
 (Enter /apps/versions/2023.01/rocky8/x86_64/generic/software/Gaussian/16.B.01/g16/l301.exe)
 Standard basis: 6-31G(d) (6D, 7F)
 Ernie: Thresh=  0.10000D-02 Tol=  0.10000D-05 Strict=F.
 There are   117 symmetry adapted cartesian basis functions of A   symmetry.
 There are   117 symmetry adapted basis functions of A   symmetry.
   117 basis functions,   220 primitive gaussians,   117 cartesian basis functions
    25 alpha electrons       25 beta electrons
       nuclear repulsion energy       270.3062239958 Hartrees.
 IExCor=  402 DFT=T Ex+Corr=B3LYP ExCW=0 ScaHFX=  0.200000
 ScaDFX=  0.800000  0.720000  1.000000  0.810000 ScalE2=  1.000000  1.000000
 IRadAn=      5 IRanWt=     -1 IRanGd=            0 ICorTp=0 IEmpDi=  4
 NAtoms=   13 NActive=   13 NUniq=   13 SFac= 1.00D+00 NAtFMM=   60 NAOKFM=F Big=F
 Integral buffers will be    131072 words long.
 Raffenetti 2 integral format.
 Two-electron integral symmetry is turned on.
 Leave Link  301 at Wed Mar 27 14:14:06 2024, MaxMem=  1073741824 cpu:               0.4 elap:               0.2
 (Enter /apps/versions/2023.01/rocky8/x86_64/generic/software/Gaussian/16.B.01/g16/l302.exe)
 NPDir=0 NMtPBC=     1 NCelOv=     1 NCel=       1 NClECP=     1 NCelD=      1
         NCelK=      1 NCelE2=     1 NClLst=     1 CellRange=     0.0.
 One-electron integrals computed using PRISM.
 One-electron integral symmetry used in STVInt
 NBasis=   117 RedAO= T EigKep=  4.90D-04  NBF=   117
 NBsUse=   117 1.00D-06 EigRej= -1.00D+00 NBFU=   117
 Precomputing XC quadrature grid using
 IXCGrd= 4 IRadAn=           5 IRanWt=          -1 IRanGd=           0 AccXCQ= 0.00D+00.
 Generated NRdTot=       0 NPtTot=           0 NUsed=           0 NTot=          32
 NSgBfM=   117   117   117   117   117 MxSgAt=    13 MxSgA2=    13.
 Leave Link  302 at Wed Mar 27 14:14:07 2024, MaxMem=  1073741824 cpu:               1.7 elap:               0.8
 (Enter /apps/versions/2023.01/rocky8/x86_64/generic/software/Gaussian/16.B.01/g16/l303.exe)
 DipDrv:  MaxL=1.
 Leave Link  303 at Wed Mar 27 14:14:07 2024, MaxMem=  1073741824 cpu:               0.3 elap:               0.1
 (Enter /apps/versions/2023.01/rocky8/x86_64/generic/software/Gaussian/16.B.01/g16/l401.exe)
 ExpMin= 1.61D-01 ExpMax= 5.48D+03 ExpMxC= 8.25D+02 IAcc=3 IRadAn=         5 AccDes= 0.00D+00
 Harris functional with IExCor=  402 and IRadAn=       5 diagonalized for initial guess.
 HarFok:  IExCor=  402 AccDes= 0.00D+00 IRadAn=         5 IDoV= 1 UseB2=F ITyADJ=14
 ICtDFT=  3500011 ScaDFX=  1.000000  1.000000  1.000000  1.000000
 FoFCou: FMM=F IPFlag=           0 FMFlag=      100000 FMFlg1=           0
         NFxFlg=           0 DoJE=T BraDBF=F KetDBF=T FulRan=T
         wScrn=  0.000000 ICntrl=       500 IOpCl=  0 I1Cent=   200000004 NGrid=           0
         NMat0=    1 NMatS0=      1 NMatT0=    0 NMatD0=    1 NMtDS0=    0 NMtDT0=    0
 Petite list used in FoFCou.
 Harris En= -307.494696516121    
 JPrj=0 DoOrth=F DoCkMO=F.
 Leave Link  401 at Wed Mar 27 14:14:09 2024, MaxMem=  1073741824 cpu:               3.9 elap:               1.9
 (Enter /apps/versions/2023.01/rocky8/x86_64/generic/software/Gaussian/16.B.01/g16/l502.exe)
 Integral symmetry usage will be decided dynamically.
 Closed shell SCF:
 Using DIIS extrapolation, IDIIS=  1040.
 NGot=  1073741824 LenX=  1073712108 LenY=  1073697978
 Requested convergence on RMS density matrix=1.00D-08 within 128 cycles.
 Requested convergence on MAX density matrix=1.00D-06.
 Requested convergence on             energy=1.00D-06.
 No special actions if energy rises.
 Fock matrices will be formed incrementally for  20 cycles.
 Integral accuracy reduced to 1.0D-05 until final iterations.

 Cycle   1  Pass 0  IDiag  1:
 FoFJK:  IHMeth= 1 ICntrl=       0 DoSepK=F KAlg= 0 I1Cent=           0 FoldK=F
 IRaf= 980000000 NMat=       1 IRICut=       1 DoRegI=T DoRafI=F ISym2E= 0 IDoP0=0 IntGTp=1.
 FoFCou: FMM=F IPFlag=           0 FMFlag=      100000 FMFlg1=           0
         NFxFlg=           0 DoJE=F BraDBF=F KetDBF=F FulRan=T
         wScrn=  0.000000 ICntrl=         0 IOpCl=  0 I1Cent=           0 NGrid=           0
         NMat0=    1 NMatS0=      1 NMatT0=    0 NMatD0=    1 NMtDS0=    0 NMtDT0=    0
 Symmetry not used in FoFCou.
 E= -307.282047039202    
 DIIS: error= 4.90D-02 at cycle   1 NSaved=   1.
 NSaved= 1 IEnMin= 1 EnMin= -307.282047039202     IErMin= 1 ErrMin= 4.90D-02
 ErrMax= 4.90D-02  0.00D+00 EMaxC= 1.00D-01 BMatC= 1.73D-01 BMatP= 1.73D-01
 IDIUse=3 WtCom= 5.10D-01 WtEn= 4.90D-01
 Coeff-Com:  0.100D+01
 Coeff-En:   0.100D+01
 Coeff:      0.100D+01
 Gap=     0.234 Goal=   None    Shift=    0.000
 GapD=    0.234 DampG=1.000 DampE=0.500 DampFc=0.5000 IDamp=-1.
 Damping current iteration by 5.00D-01
 RMSDP=7.89D-03 MaxDP=1.25D-01              OVMax= 1.73D-01

 Cycle   2  Pass 0  IDiag  1:
 RMSU=  3.87D-03    CP:  9.75D-01
 E= -307.365169000061     Delta-E=       -0.083121960859 Rises=F Damp=T
 DIIS: error= 8.30D-03 at cycle   2 NSaved=   2.
 NSaved= 2 IEnMin= 2 EnMin= -307.365169000061     IErMin= 2 ErrMin= 8.30D-03
 ErrMax= 8.30D-03  0.00D+00 EMaxC= 1.00D-01 BMatC= 8.49D-03 BMatP= 1.73D-01
 IDIUse=3 WtCom= 9.17D-01 WtEn= 8.30D-02
 Coeff-Com:  0.403D-01 0.960D+00
 Coeff-En:   0.654D-01 0.935D+00
 Coeff:      0.424D-01 0.958D+00
 Gap=     0.272 Goal=   None    Shift=    0.000
 RMSDP=1.69D-03 MaxDP=2.92D-02 DE=-8.31D-02 OVMax= 1.18D-01

 Cycle   3  Pass 0  IDiag  1:
 RMSU=  1.63D-03    CP:  9.69D-01  8.91D-01
 E= -307.458136072670     Delta-E=       -0.092967072608 Rises=F Damp=F
 DIIS: error= 7.81D-03 at cycle   3 NSaved=   3.
 NSaved= 3 IEnMin= 3 EnMin= -307.458136072670     IErMin= 3 ErrMin= 7.81D-03
 ErrMax= 7.81D-03  0.00D+00 EMaxC= 1.00D-01 BMatC= 4.25D-03 BMatP= 8.49D-03
 IDIUse=3 WtCom= 9.22D-01 WtEn= 7.81D-02
 Coeff-Com: -0.183D-01 0.392D+00 0.627D+00
 Coeff-En:   0.000D+00 0.000D+00 0.100D+01
 Coeff:     -0.169D-01 0.361D+00 0.656D+00
 Gap=     0.221 Goal=   None    Shift=    0.000
 RMSDP=9.74D-04 MaxDP=2.27D-02 DE=-9.30D-02 OVMax= 4.82D-02

 Cycle   4  Pass 0  IDiag  1:
 RMSU=  7.96D-04    CP:  9.69D-01  9.32D-01  6.70D-01
 E= -307.459839310699     Delta-E=       -0.001703238030 Rises=F Damp=F
 DIIS: error= 6.68D-03 at cycle   4 NSaved=   4.
 NSaved= 4 IEnMin= 4 EnMin= -307.459839310699     IErMin= 4 ErrMin= 6.68D-03
 ErrMax= 6.68D-03  0.00D+00 EMaxC= 1.00D-01 BMatC= 2.52D-03 BMatP= 4.25D-03
 IDIUse=3 WtCom= 9.33D-01 WtEn= 6.68D-02
 Coeff-Com: -0.152D-01 0.927D-01 0.441D+00 0.482D+00
 Coeff-En:   0.000D+00 0.000D+00 0.407D+00 0.593D+00
 Coeff:     -0.142D-01 0.865D-01 0.439D+00 0.489D+00
 Gap=     0.219 Goal=   None    Shift=    0.000
 RMSDP=5.05D-04 MaxDP=8.91D-03 DE=-1.70D-03 OVMax= 2.48D-02

 Cycle   5  Pass 0  IDiag  1:
 RMSU=  1.61D-04    CP:  9.69D-01  9.27D-01  8.04D-01  4.66D-01
 E= -307.462669498486     Delta-E=       -0.002830187787 Rises=F Damp=F
 DIIS: error= 6.80D-04 at cycle   5 NSaved=   5.
 NSaved= 5 IEnMin= 5 EnMin= -307.462669498486     IErMin= 5 ErrMin= 6.80D-04
 ErrMax= 6.80D-04  0.00D+00 EMaxC= 1.00D-01 BMatC= 4.49D-05 BMatP= 2.52D-03
 IDIUse=3 WtCom= 9.93D-01 WtEn= 6.80D-03
 Coeff-Com: -0.414D-02 0.134D-01 0.142D+00 0.206D+00 0.643D+00
 Coeff-En:   0.000D+00 0.000D+00 0.000D+00 0.000D+00 0.100D+01
 Coeff:     -0.411D-02 0.134D-01 0.141D+00 0.204D+00 0.645D+00
 Gap=     0.220 Goal=   None    Shift=    0.000
 RMSDP=7.43D-05 MaxDP=1.32D-03 DE=-2.83D-03 OVMax= 3.30D-03

 Cycle   6  Pass 0  IDiag  1:
 RMSU=  4.88D-05    CP:  9.69D-01  9.31D-01  7.98D-01  5.16D-01  7.83D-01
 E= -307.462707170846     Delta-E=       -0.000037672360 Rises=F Damp=F
 DIIS: error= 2.90D-04 at cycle   6 NSaved=   6.
 NSaved= 6 IEnMin= 6 EnMin= -307.462707170846     IErMin= 6 ErrMin= 2.90D-04
 ErrMax= 2.90D-04  0.00D+00 EMaxC= 1.00D-01 BMatC= 9.50D-06 BMatP= 4.49D-05
 IDIUse=3 WtCom= 9.97D-01 WtEn= 2.90D-03
 Coeff-Com: -0.157D-02 0.230D-02 0.547D-01 0.881D-01 0.387D+00 0.470D+00
 Coeff-En:   0.000D+00 0.000D+00 0.000D+00 0.000D+00 0.114D+00 0.886D+00
 Coeff:     -0.157D-02 0.229D-02 0.546D-01 0.879D-01 0.386D+00 0.471D+00
 Gap=     0.220 Goal=   None    Shift=    0.000
 RMSDP=2.52D-05 MaxDP=5.24D-04 DE=-3.77D-05 OVMax= 6.86D-04

 Cycle   7  Pass 0  IDiag  1:
 RMSU=  7.78D-06    CP:  9.69D-01  9.29D-01  8.02D-01  5.14D-01  7.93D-01
                    CP:  5.48D-01
 E= -307.462715318662     Delta-E=       -0.000008147817 Rises=F Damp=F
 DIIS: error= 4.33D-05 at cycle   7 NSaved=   7.
 NSaved= 7 IEnMin= 7 EnMin= -307.462715318662     IErMin= 7 ErrMin= 4.33D-05
 ErrMax= 4.33D-05  0.00D+00 EMaxC= 1.00D-01 BMatC= 1.34D-07 BMatP= 9.50D-06
 IDIUse=1 WtCom= 1.00D+00 WtEn= 0.00D+00
 Coeff-Com: -0.410D-03 0.201D-03 0.163D-01 0.268D-01 0.132D+00 0.187D+00
 Coeff-Com:  0.638D+00
 Coeff:     -0.410D-03 0.201D-03 0.163D-01 0.268D-01 0.132D+00 0.187D+00
 Coeff:      0.638D+00
 Gap=     0.220 Goal=   None    Shift=    0.000
 RMSDP=4.33D-06 MaxDP=9.99D-05 DE=-8.15D-06 OVMax= 1.91D-04

 Initial convergence to 1.0D-05 achieved.  Increase integral accuracy.
 Cycle   8  Pass 1  IDiag  1:
 E= -307.462707834428     Delta-E=        0.000007484234 Rises=F Damp=F
 DIIS: error= 1.96D-05 at cycle   1 NSaved=   1.
 NSaved= 1 IEnMin= 1 EnMin= -307.462707834428     IErMin= 1 ErrMin= 1.96D-05
 ErrMax= 1.96D-05  0.00D+00 EMaxC= 1.00D-01 BMatC= 4.95D-08 BMatP= 4.95D-08
 IDIUse=1 WtCom= 1.00D+00 WtEn= 0.00D+00
 Coeff-Com:  0.100D+01
 Coeff:      0.100D+01
 Gap=     0.220 Goal=   None    Shift=    0.000
 RMSDP=4.33D-06 MaxDP=9.99D-05 DE= 7.48D-06 OVMax= 2.65D-04

 Cycle   9  Pass 1  IDiag  1:
 RMSU=  5.39D-06    CP:  1.00D+00
 E= -307.462707741482     Delta-E=        0.000000092947 Rises=F Damp=F
 DIIS: error= 3.59D-05 at cycle   2 NSaved=   2.
 NSaved= 2 IEnMin= 1 EnMin= -307.462707834428     IErMin= 1 ErrMin= 1.96D-05
 ErrMax= 3.59D-05  0.00D+00 EMaxC= 1.00D-01 BMatC= 1.43D-07 BMatP= 4.95D-08
 IDIUse=1 WtCom= 1.00D+00 WtEn= 0.00D+00
 Coeff-Com:  0.632D+00 0.368D+00
 Coeff:      0.632D+00 0.368D+00
 Gap=     0.220 Goal=   None    Shift=    0.000
 RMSDP=3.28D-06 MaxDP=6.50D-05 DE= 9.29D-08 OVMax= 1.74D-04

 Cycle  10  Pass 1  IDiag  1:
 RMSU=  1.12D-06    CP:  1.00D+00  4.28D-01
 E= -307.462707881753     Delta-E=       -0.000000140271 Rises=F Damp=F
 DIIS: error= 2.78D-06 at cycle   3 NSaved=   3.
 NSaved= 3 IEnMin= 3 EnMin= -307.462707881753     IErMin= 3 ErrMin= 2.78D-06
 ErrMax= 2.78D-06  0.00D+00 EMaxC= 1.00D-01 BMatC= 1.09D-09 BMatP= 4.95D-08
 IDIUse=1 WtCom= 1.00D+00 WtEn= 0.00D+00
 Coeff-Com:  0.265D+00 0.169D+00 0.566D+00
 Coeff:      0.265D+00 0.169D+00 0.566D+00
 Gap=     0.220 Goal=   None    Shift=    0.000
 RMSDP=4.01D-07 MaxDP=1.17D-05 DE=-1.40D-07 OVMax= 1.86D-05

 Cycle  11  Pass 1  IDiag  1:
 RMSU=  3.45D-07    CP:  1.00D+00  4.54D-01  8.69D-01
 E= -307.462707882639     Delta-E=       -0.000000000886 Rises=F Damp=F
 DIIS: error= 1.25D-06 at cycle   4 NSaved=   4.
 NSaved= 4 IEnMin= 4 EnMin= -307.462707882639     IErMin= 4 ErrMin= 1.25D-06
 ErrMax= 1.25D-06  0.00D+00 EMaxC= 1.00D-01 BMatC= 2.43D-10 BMatP= 1.09D-09
 IDIUse=1 WtCom= 1.00D+00 WtEn= 0.00D+00
 Coeff-Com:  0.857D-02 0.136D-01 0.329D+00 0.649D+00
 Coeff:      0.857D-02 0.136D-01 0.329D+00 0.649D+00
 Gap=     0.220 Goal=   None    Shift=    0.000
 RMSDP=1.44D-07 MaxDP=4.04D-06 DE=-8.86D-10 OVMax= 7.95D-06

 Cycle  12  Pass 1  IDiag  1:
 RMSU=  5.70D-08    CP:  1.00D+00  4.50D-01  9.24D-01  6.69D-01
 E= -307.462707882885     Delta-E=       -0.000000000246 Rises=F Damp=F
 DIIS: error= 2.81D-07 at cycle   5 NSaved=   5.
 NSaved= 5 IEnMin= 5 EnMin= -307.462707882885     IErMin= 5 ErrMin= 2.81D-07
 ErrMax= 2.81D-07  0.00D+00 EMaxC= 1.00D-01 BMatC= 1.05D-11 BMatP= 2.43D-10
 IDIUse=1 WtCom= 1.00D+00 WtEn= 0.00D+00
 Coeff-Com: -0.319D-02 0.262D-02 0.159D+00 0.343D+00 0.499D+00
 Coeff:     -0.319D-02 0.262D-02 0.159D+00 0.343D+00 0.499D+00
 Gap=     0.220 Goal=   None    Shift=    0.000
 RMSDP=3.25D-08 MaxDP=5.29D-07 DE=-2.46D-10 OVMax= 1.26D-06

 Cycle  13  Pass 1  IDiag  1:
 RMSU=  1.97D-08    CP:  1.00D+00  4.52D-01  9.23D-01  6.95D-01  6.04D-01
 E= -307.462707882895     Delta-E=       -0.000000000011 Rises=F Damp=F
 DIIS: error= 8.65D-08 at cycle   6 NSaved=   6.
 NSaved= 6 IEnMin= 6 EnMin= -307.462707882895     IErMin= 6 ErrMin= 8.65D-08
 ErrMax= 8.65D-08  0.00D+00 EMaxC= 1.00D-01 BMatC= 1.08D-12 BMatP= 1.05D-11
 IDIUse=1 WtCom= 1.00D+00 WtEn= 0.00D+00
 Coeff-Com: -0.292D-02-0.234D-03 0.459D-01 0.103D+00 0.275D+00 0.579D+00
 Coeff:     -0.292D-02-0.234D-03 0.459D-01 0.103D+00 0.275D+00 0.579D+00
 Gap=     0.220 Goal=   None    Shift=    0.000
 RMSDP=8.25D-09 MaxDP=2.13D-07 DE=-1.08D-11 OVMax= 3.29D-07

 SCF Done:  E(RB3LYP) =  -307.462707883     A.U. after   13 cycles
            NFock= 13  Conv=0.83D-08     -V/T= 2.0098
 KE= 3.044746844338D+02 PE=-1.255691658641D+03 EE= 3.734480423288D+02
 Leave Link  502 at Wed Mar 27 14:14:28 2024, MaxMem=  1073741824 cpu:              38.5 elap:              19.3
 (Enter /apps/versions/2023.01/rocky8/x86_64/generic/software/Gaussian/16.B.01/g16/l601.exe)
 Copying SCF densities to generalized density rwf, IOpCl= 0 IROHF=0.

 **********************************************************************

            Population analysis using the SCF Density.

 **********************************************************************

 Orbital symmetries:
       Occupied  (A) (A) (A) (A) (A) (A) (A) (A) (A) (A) (A) (A)
                 (A) (A) (A) (A) (A) (A) (A) (A) (A) (A) (A) (A)
                 (A)
       Virtual   (A) (A) (A) (A) (A) (A) (A) (A) (A) (A) (A) (A)
                 (A) (A) (A) (A) (A) (A) (A) (A) (A) (A) (A) (A)
                 (A) (A) (A) (A) (A) (A) (A) (A) (A) (A) (A) (A)
                 (A) (A) (A) (A) (A) (A) (A) (A) (A) (A) (A) (A)
                 (A) (A) (A) (A) (A) (A) (A) (A) (A) (A) (A) (A)
                 (A) (A) (A) (A) (A) (A) (A) (A) (A) (A) (A) (A)
                 (A) (A) (A) (A) (A) (A) (A) (A) (A) (A) (A) (A)
                 (A) (A) (A) (A) (A) (A) (A) (A)
 The electronic state is 1-A.
 Alpha  occ. eigenvalues --  -19.17946 -10.24809 -10.18975 -10.18838 -10.18725
 Alpha  occ. eigenvalues --  -10.18219 -10.18015  -1.04810  -0.84307  -0.74358
 Alpha  occ. eigenvalues --   -0.73155  -0.61819  -0.59720  -0.53932  -0.49368
 Alpha  occ. eigenvalues --   -0.46012  -0.43499  -0.41949  -0.40147  -0.38079
 Alpha  occ. eigenvalues --   -0.35770  -0.33412  -0.32944  -0.24808  -0.21753
 Alpha virt. eigenvalues --    0.00205   0.01778   0.05426   0.09399   0.14486
 Alpha virt. eigenvalues --    0.15734   0.17031   0.18901   0.18959   0.24544
 Alpha virt. eigenvalues --    0.29725   0.30599   0.34457   0.35409   0.48255
 Alpha virt. eigenvalues --    0.51316   0.52535   0.54943   0.56885   0.59670
 Alpha virt. eigenvalues --    0.60040   0.60572   0.61512   0.61800   0.62054
 Alpha virt. eigenvalues --    0.64056   0.66553   0.67595   0.74820   0.75857
 Alpha virt. eigenvalues --    0.83404   0.83829   0.85235   0.86535   0.88047
 Alpha virt. eigenvalues --    0.92874   0.93330   0.95616   0.95737   0.98792
 Alpha virt. eigenvalues --    1.03769   1.10013   1.11469   1.17502   1.20337
 Alpha virt. eigenvalues --    1.25142   1.29097   1.36023   1.37796   1.44606
 Alpha virt. eigenvalues --    1.44749   1.46983   1.49440   1.51556   1.67745
 Alpha virt. eigenvalues --    1.74186   1.76992   1.79225   1.85252   1.89889
 Alpha virt. eigenvalues --    1.92951   1.96753   1.97502   1.97932   2.07118
 Alpha virt. eigenvalues --    2.11061   2.13359   2.14919   2.24707   2.24968
 Alpha virt. eigenvalues --    2.30883   2.31360   2.35795   2.49769   2.52361
 Alpha virt. eigenvalues --    2.57221   2.64896   2.65820   2.71966   2.72409
 Alpha virt. eigenvalues --    2.73789   2.83704   2.95068   3.10089   3.41326
 Alpha virt. eigenvalues --    3.93300   4.08862   4.11774   4.17798   4.33027
 Alpha virt. eigenvalues --    4.40761   4.72654
          Condensed to atoms (all electrons):
               1          2          3          4          5          6
     1  C    4.869360   0.360133   0.555536  -0.041806   0.545159  -0.043465
     2  H    0.360133   0.601667  -0.042860  -0.005580  -0.043115  -0.005511
     3  C    0.555536  -0.042860   4.857830   0.354515  -0.026381   0.004934
     4  H   -0.041806  -0.005580   0.354515   0.600343   0.004787  -0.000201
     5  C    0.545159  -0.043115  -0.026381   0.004787   4.842505   0.359019
     6  H   -0.043465  -0.005511   0.004934  -0.000201   0.359019   0.597201
     7  C   -0.041679   0.004912   0.502873  -0.038313  -0.038342   0.000617
     8  H    0.004705  -0.000172  -0.036818  -0.006292   0.000407   0.000014
     9  C   -0.038069   0.004584  -0.037344   0.000719   0.542156  -0.041696
    10  H    0.004968  -0.000159   0.000051   0.000015  -0.043218  -0.006385
    11  C   -0.040029   0.000701  -0.003387   0.003355  -0.012385   0.004400
    12  O    0.000266   0.000002   0.004499  -0.000061   0.002797  -0.000056
    13  H   -0.000013  -0.000001   0.000566  -0.000016  -0.000169   0.000005
               7          8          9         10         11         12
     1  C   -0.041679   0.004705  -0.038069   0.004968  -0.040029   0.000266
     2  H    0.004912  -0.000172   0.004584  -0.000159   0.000701   0.000002
     3  C    0.502873  -0.036818  -0.037344   0.000051  -0.003387   0.004499
     4  H   -0.038313  -0.006292   0.000719   0.000015   0.003355  -0.000061
     5  C   -0.038342   0.000407   0.542156  -0.043218  -0.012385   0.002797
     6  H    0.000617   0.000014  -0.041696  -0.006385   0.004400  -0.000056
     7  C    5.080350   0.346117  -0.072234   0.006853   0.505263  -0.057784
     8  H    0.346117   0.616648   0.005222  -0.000173  -0.046551  -0.005704
     9  C   -0.072234   0.005222   4.950874   0.347247   0.544040  -0.050600
    10  H    0.006853  -0.000173   0.347247   0.592243  -0.037529  -0.001278
    11  C    0.505263  -0.046551   0.544040  -0.037529   4.475004   0.271611
    12  O   -0.057784  -0.005704  -0.050600  -0.001278   0.271611   8.251300
    13  H   -0.003983   0.006834   0.005621  -0.000325  -0.030494   0.235788
              13
     1  C   -0.000013
     2  H   -0.000001
     3  C    0.000566
     4  H   -0.000016
     5  C   -0.000169
     6  H    0.000005
     7  C   -0.003983
     8  H    0.006834
     9  C    0.005621
    10  H   -0.000325
    11  C   -0.030494
    12  O    0.235788
    13  H    0.382440
 Mulliken charges:
               1
     1  C   -0.135066
     2  H    0.125399
     3  C   -0.134015
     4  H    0.128534
     5  C   -0.133219
     6  H    0.131124
     7  C   -0.194651
     8  H    0.115762
     9  C   -0.160521
    10  H    0.137688
    11  C    0.366000
    12  O   -0.650780
    13  H    0.403746
 Sum of Mulliken charges =  -0.00000
 Mulliken charges with hydrogens summed into heavy atoms:
               1
     1  C   -0.009667
     3  C   -0.005482
     5  C   -0.002096
     7  C   -0.078889
     9  C   -0.022833
    11  C    0.366000
    12  O   -0.247034
 Electronic spatial extent (au):  <R**2>=            667.0001
 Charge=             -0.0000 electrons
 Dipole moment (field-independent basis, Debye):
    X=              0.2132    Y=              1.3726    Z=              0.0421  Tot=              1.3897
 Quadrupole moment (field-independent basis, Debye-Ang):
   XX=            -36.0048   YY=            -35.4121   ZZ=            -43.7949
   XY=              4.6546   XZ=              0.1043   YZ=              0.0169
 Traceless Quadrupole moment (field-independent basis, Debye-Ang):
   XX=              2.3992   YY=              2.9918   ZZ=             -5.3910
   XY=              4.6546   XZ=              0.1043   YZ=              0.0169
 Octapole moment (field-independent basis, Debye-Ang**2):
  XXX=             12.5762  YYY=              0.0908  ZZZ=              0.0173  XYY=              5.0877
  XXY=             13.2657  XXZ=              0.3131  XZZ=              5.4543  YZZ=             -0.0629
  YYZ=              0.0737  XYZ=              0.0689
 Hexadecapole moment (field-independent basis, Debye-Ang**3):
 XXXX=           -463.3868 YYYY=           -274.3758 ZZZZ=            -43.4286 XXXY=             39.3786
 XXXZ=              0.8389 YYYX=              3.0913 YYYZ=             -0.0603 ZZZX=              0.0354
 ZZZY=              0.0083 XXYY=           -118.5816 XXZZ=           -100.0818 YYZZ=            -62.3003
 XXYZ=              0.2332 YYXZ=              0.0706 ZZXY=              0.4830
 N-N= 2.703062239958D+02 E-N=-1.255691659917D+03  KE= 3.044746844338D+02
 No NMR shielding tensors so no spin-rotation constants.
 Leave Link  601 at Wed Mar 27 14:14:29 2024, MaxMem=  1073741824 cpu:               1.2 elap:               0.5
 (Enter /apps/versions/2023.01/rocky8/x86_64/generic/software/Gaussian/16.B.01/g16/l701.exe)
 ... and contract with generalized density number  0.
 Compute integral first derivatives.
 Leave Link  701 at Wed Mar 27 14:14:30 2024, MaxMem=  1073741824 cpu:               1.2 elap:               0.6
 (Enter /apps/versions/2023.01/rocky8/x86_64/generic/software/Gaussian/16.B.01/g16/l702.exe)
 L702 exits ... SP integral derivatives will be done elsewhere.
 Leave Link  702 at Wed Mar 27 14:14:30 2024, MaxMem=  1073741824 cpu:               0.3 elap:               0.1
 (Enter /apps/versions/2023.01/rocky8/x86_64/generic/software/Gaussian/16.B.01/g16/l703.exe)
 Integral derivatives from FoFJK, PRISM(SPDF).
 Compute integral first derivatives, UseDBF=F ICtDFT=           0.
 Calling FoFJK, ICntrl=      2127 FMM=F ISym2X=0 I1Cent= 0 IOpClX= 0 NMat=1 NMatS=1 NMatT=0.
 FoFJK:  IHMeth= 1 ICntrl=    2127 DoSepK=F KAlg= 0 I1Cent=           0 FoldK=F
 IRaf=         0 NMat=       1 IRICut=       1 DoRegI=T DoRafI=F ISym2E= 0 IDoP0=0 IntGTp=1.
 FoFCou: FMM=F IPFlag=           0 FMFlag=      100000 FMFlg1=         800
         NFxFlg=           0 DoJE=F BraDBF=F KetDBF=F FulRan=T
         wScrn=  0.000000 ICntrl=      2127 IOpCl=  0 I1Cent=           0 NGrid=           0
         NMat0=    1 NMatS0=      1 NMatT0=    0 NMatD0=    1 NMtDS0=    0 NMtDT0=    0
 Symmetry not used in FoFCou.
 Leave Link  703 at Wed Mar 27 14:14:35 2024, MaxMem=  1073741824 cpu:              10.4 elap:               5.2
 (Enter /apps/versions/2023.01/rocky8/x86_64/generic/software/Gaussian/16.B.01/g16/l716.exe)
 Dipole        = 8.38679394D-02 5.40033547D-01 1.65479460D-02
 ***** Axes restored to original set *****
 -------------------------------------------------------------------
 Center     Atomic                   Forces (Hartrees/Bohr)
 Number     Number              X              Y              Z
 -------------------------------------------------------------------
      1        6          -0.000753317   -0.000732606    0.000672344
      2        1          -0.000161516    0.000027034    0.000024649
      3        6          -0.001059384   -0.000477727    0.000736688
      4        1          -0.000530476    0.000240453   -0.000100649
      5        6          -0.000463949   -0.001143946    0.001073398
      6        1           0.000429134    0.000012322   -0.000059737
      7        6           0.002183881    0.003778658   -0.003818083
      8        1           0.000175002   -0.000602895    0.000542880
      9        6           0.003395126   -0.001660393    0.000572368
     10        1          -0.000524309   -0.000010886    0.000617585
     11        6          -0.007735846   -0.003735027    0.004266426
     12        8          -0.006231894   -0.022496941    0.020347395
     13        1           0.011277547    0.026801954   -0.024875264
 -------------------------------------------------------------------
 Cartesian Forces:  Max     0.026801954 RMS     0.008120156
 Leave Link  716 at Wed Mar 27 14:14:35 2024, MaxMem=  1073741824 cpu:               0.4 elap:               0.1
 (Enter /apps/versions/2023.01/rocky8/x86_64/generic/software/Gaussian/16.B.01/g16/l103.exe)

 GradGradGradGradGradGradGradGradGradGradGradGradGradGradGradGradGradGrad
 Berny optimization.
 FormGI is forming the generalized inverse of G from B-inverse, IUseBI=4.
 Internal  Forces:  Max     0.037676411 RMS     0.005327756
 Search for a local minimum.
 Step number   1 out of a maximum of  100
 All quantities printed in internal units (Hartrees-Bohrs-Radians)
 RMS Force = .53278D-02 SwitMx=.10000D-02 MixMth= 1
 Mixed Optimization -- RFO/linear search
 Second derivative matrix not updated -- first step.
 ITU=  0
     Eigenvalues ---    0.02073   0.02090   0.02098   0.02126   0.02133
     Eigenvalues ---    0.02135   0.02137   0.02138   0.02149   0.02161
     Eigenvalues ---    0.15999   0.16000   0.16000   0.16000   0.16000
     Eigenvalues ---    0.16000   0.22000   0.22000   0.23485   0.25000
     Eigenvalues ---    0.35126   0.35204   0.35224   0.35226   0.35303
     Eigenvalues ---    0.41757   0.41904   0.45265   0.45550   0.45855
     Eigenvalues ---    0.46229   0.46593   0.51663
 RFO step:  Lambda=-4.34245289D-03 EMin= 2.07265579D-02
 Linear search not attempted -- first point.
 Iteration  1 RMS(Cart)=  0.02190346 RMS(Int)=  0.00070502
 Iteration  2 RMS(Cart)=  0.00079889 RMS(Int)=  0.00000484
 Iteration  3 RMS(Cart)=  0.00000178 RMS(Int)=  0.00000467
 Iteration  4 RMS(Cart)=  0.00000000 RMS(Int)=  0.00000467
 ITry= 1 IFail=0 DXMaxC= 1.13D-01 DCOld= 1.00D+10 DXMaxT= 3.00D-01 DXLimC= 3.00D+00 Rises=F
 Variable       Old X    -DE/DX   Delta X   Delta X   Delta X     New X
                                 (Linear)    (Quad)   (Total)
    R1        2.05186   0.00010   0.00000   0.00029   0.00029   2.05215
    R2        2.63816  -0.00112   0.00000  -0.00225  -0.00225   2.63591
    R3        2.63908   0.00129   0.00000   0.00303   0.00303   2.64211
    R4        2.05314   0.00049   0.00000   0.00138   0.00138   2.05452
    R5        2.63906  -0.00085   0.00000  -0.00194  -0.00194   2.63712
    R6        2.05309   0.00021   0.00000   0.00058   0.00058   2.05367
    R7        2.63246  -0.00003   0.00000   0.00005   0.00005   2.63251
    R8        2.05471   0.00069   0.00000   0.00193   0.00193   2.05664
    R9        2.64971  -0.00157   0.00000  -0.00370  -0.00369   2.64602
   R10        2.05346  -0.00061   0.00000  -0.00172  -0.00172   2.05173
   R11        2.64736  -0.00240   0.00000  -0.00538  -0.00538   2.64198
   R12        2.58224  -0.00145   0.00000  -0.00279  -0.00279   2.57945
   R13        1.91669  -0.03768   0.00000  -0.08244  -0.08244   1.83425
    A1        2.10021  -0.00006   0.00000  -0.00094  -0.00094   2.09927
    A2        2.10219   0.00020   0.00000   0.00064   0.00064   2.10283
    A3        2.08078  -0.00013   0.00000   0.00031   0.00030   2.08109
    A4        2.09518   0.00060   0.00000   0.00210   0.00210   2.09728
    A5        2.11213  -0.00187   0.00000  -0.00825  -0.00825   2.10388
    A6        2.07587   0.00127   0.00000   0.00615   0.00615   2.08202
    A7        2.09519  -0.00013   0.00000  -0.00034  -0.00034   2.09485
    A8        2.10338   0.00103   0.00000   0.00544   0.00544   2.10881
    A9        2.08461  -0.00091   0.00000  -0.00510  -0.00510   2.07952
   A10        2.10119  -0.00051   0.00000  -0.00111  -0.00111   2.10008
   A11        2.08215   0.00197   0.00000   0.00803   0.00803   2.09019
   A12        2.09985  -0.00146   0.00000  -0.00692  -0.00692   2.09292
   A13        2.11510   0.00117   0.00000   0.00584   0.00583   2.12094
   A14        2.09403  -0.00162   0.00000  -0.00722  -0.00722   2.08680
   A15        2.07402   0.00045   0.00000   0.00143   0.00142   2.07544
   A16        2.09390   0.00062   0.00000   0.00170   0.00170   2.09560
   A17        2.13163   0.00348   0.00000   0.01404   0.01403   2.14566
   A18        2.05766  -0.00409   0.00000  -0.01574  -0.01574   2.04192
   A19        1.96066  -0.01282   0.00000  -0.07800  -0.07800   1.88266
    D1       -0.00005   0.00001   0.00000   0.00053   0.00053   0.00047
    D2       -3.14112   0.00000   0.00000   0.00015   0.00016  -3.14096
    D3       -3.13913  -0.00005   0.00000  -0.00188  -0.00188  -3.14101
    D4        0.00299  -0.00006   0.00000  -0.00225  -0.00225   0.00074
    D5       -0.00073   0.00002   0.00000   0.00082   0.00082   0.00010
    D6       -3.14008  -0.00004   0.00000  -0.00167  -0.00167   3.14143
    D7        3.13835   0.00008   0.00000   0.00323   0.00323   3.14158
    D8       -0.00101   0.00002   0.00000   0.00073   0.00074  -0.00027
    D9        3.14017   0.00001   0.00000   0.00045   0.00045   3.14062
   D10       -0.00254   0.00005   0.00000   0.00194   0.00194  -0.00059
   D11       -0.00089   0.00000   0.00000   0.00008   0.00008  -0.00081
   D12        3.13958   0.00004   0.00000   0.00157   0.00157   3.14116
   D13        3.13124   0.00020   0.00000   0.00773   0.00773   3.13897
   D14       -0.00138   0.00003   0.00000   0.00104   0.00104  -0.00035
   D15       -0.00813   0.00013   0.00000   0.00525   0.00525  -0.00288
   D16       -3.14075  -0.00004   0.00000  -0.00144  -0.00144   3.14099
   D17        0.00010  -0.00000   0.00000  -0.00013  -0.00013  -0.00003
   D18        3.14134  -0.00005   0.00000  -0.00182  -0.00183   3.13951
   D19        3.14058   0.00003   0.00000   0.00136   0.00136  -3.14125
   D20       -0.00137  -0.00001   0.00000  -0.00033  -0.00034  -0.00171
   D21        0.00184  -0.00003   0.00000  -0.00134  -0.00134   0.00049
   D22       -3.13942   0.00001   0.00000   0.00027   0.00025  -3.13916
   D23       -3.13099  -0.00020   0.00000  -0.00790  -0.00789  -3.13888
   D24        0.01094  -0.00016   0.00000  -0.00629  -0.00629   0.00465
   D25        0.02255  -0.00011   0.00000  -0.00435  -0.00435   0.01819
   D26       -3.11939  -0.00015   0.00000  -0.00600  -0.00600  -3.12539
         Item               Value     Threshold  Converged?
 Maximum Force            0.037676     0.000450     NO 
 RMS     Force            0.005328     0.000300     NO 
 Maximum Displacement     0.112918     0.001800     NO 
 RMS     Displacement     0.021755     0.001200     NO 
 Predicted change in Energy=-2.201756D-03
 Lowest energy point so far.  Saving SCF results.
 GradGradGradGradGradGradGradGradGradGradGradGradGradGradGradGradGradGrad

 Leave Link  103 at Wed Mar 27 14:14:36 2024, MaxMem=  1073741824 cpu:               0.3 elap:               0.1
 (Enter /apps/versions/2023.01/rocky8/x86_64/generic/software/Gaussian/16.B.01/g16/l202.exe)
                          Input orientation:                          
 ---------------------------------------------------------------------
 Center     Atomic      Atomic             Coordinates (Angstroms)
 Number     Number       Type             X           Y           Z
 ---------------------------------------------------------------------
      1          6           0       -2.669833    4.997190   -2.691289
      2          1           0       -3.338719    5.665449   -3.225432
      3          6           0       -3.179632    4.072546   -1.779816
      4          1           0       -4.250359    4.016092   -1.599905
      5          6           0       -1.289732    5.052624   -2.908205
      6          1           0       -0.878714    5.768080   -3.615474
      7          6           0       -2.325056    3.211694   -1.089841
      8          1           0       -2.726572    2.492218   -0.378791
      9          6           0       -0.425151    4.198924   -2.226786
     10          1           0        0.648033    4.230627   -2.388286
     11          6           0       -0.944443    3.275624   -1.314390
     12          8           0       -0.050174    2.467178   -0.674171
     13          1           0       -0.549647    1.874753   -0.089613
 ---------------------------------------------------------------------
                    Distance matrix (angstroms):
                    1          2          3          4          5
     1  C    0.000000
     2  H    1.085950   0.000000
     3  C    1.394864   2.156955   0.000000
     4  H    2.156788   2.488736   1.087203   0.000000
     5  C    1.398144   2.162068   2.409469   3.398730   0.000000
     6  H    2.157892   2.492848   3.396866   4.301159   1.086757
     7  C    2.423118   3.407224   1.395504   2.148025   2.787000
     8  H    3.409655   4.306679   2.159993   2.476941   3.875323
     9  C    2.427260   3.411286   2.793371   3.880545   1.393067
    10  H    3.418722   4.318995   3.878948   4.966066   2.168162
    11  C    2.799395   3.885345   2.418217   3.399837   2.411888
    12  O    4.163212   5.249038   3.686891   4.571397   3.634824
    13  H    4.584050   5.655233   3.821505   4.534488   4.311734
                    6          7          8          9         10
     6  H    0.000000
     7  C    3.873736   0.000000
     8  H    4.962053   1.088326   0.000000
     9  C    2.143927   2.424234   3.409469   0.000000
    10  H    2.490122   3.400506   4.295125   1.085730   0.000000
    11  C    3.392882   1.400215   2.159873   1.398076   2.145056
    12  O    4.498188   2.429439   2.692765   2.355879   2.556450
    13  H    5.262886   2.437200   2.281204   3.159870   3.502638
                   11         12         13
    11  C    0.000000
    12  O    1.364984   0.000000
    13  H    1.902204   0.970643   0.000000
 Stoichiometry    C6H6O
 Framework group  C1[X(C6H6O)]
 Deg. of freedom    33
 Full point group                 C1      NOp   1
 RotChk:  IX=0 Diff= 1.73D-02
 Largest Abelian subgroup         C1      NOp   1
 Largest concise Abelian subgroup C1      NOp   1
                         Standard orientation:                         
 ---------------------------------------------------------------------
 Center     Atomic      Atomic             Coordinates (Angstroms)
 Number     Number       Type             X           Y           Z
 ---------------------------------------------------------------------
      1          6           0       -1.856877    0.022083   -0.000306
      2          1           0       -2.942710    0.038013   -0.000814
      3          6           0       -1.135972    1.216211    0.000076
      4          1           0       -1.658318    2.169712    0.000313
      5          6           0       -1.165367   -1.193079    0.000102
      6          1           0       -1.714172   -2.131084   -0.000178
      7          6           0        0.259461    1.202173   -0.000033
      8          1           0        0.818393    2.136009   -0.000647
      9          6           0        0.227403   -1.221848    0.000560
     10          1           0        0.775793   -2.158903    0.003309
     11          6           0        0.942197   -0.020313    0.000193
     12          8           0        2.304249   -0.109701   -0.002282
     13          1           0        2.661950    0.792503    0.012722
 ---------------------------------------------------------------------
 Rotational constants (GHZ):           5.6470542           2.6179061           1.7886939
 Leave Link  202 at Wed Mar 27 14:14:36 2024, MaxMem=  1073741824 cpu:               0.0 elap:               0.0
 (Enter /apps/versions/2023.01/rocky8/x86_64/generic/software/Gaussian/16.B.01/g16/l301.exe)
 Standard basis: 6-31G(d) (6D, 7F)
 Ernie: Thresh=  0.10000D-02 Tol=  0.10000D-05 Strict=F.
 There are   117 symmetry adapted cartesian basis functions of A   symmetry.
 There are   117 symmetry adapted basis functions of A   symmetry.
   117 basis functions,   220 primitive gaussians,   117 cartesian basis functions
    25 alpha electrons       25 beta electrons
       nuclear repulsion energy       270.8810732099 Hartrees.
 IExCor=  402 DFT=T Ex+Corr=B3LYP ExCW=0 ScaHFX=  0.200000
 ScaDFX=  0.800000  0.720000  1.000000  0.810000 ScalE2=  1.000000  1.000000
 IRadAn=      5 IRanWt=     -1 IRanGd=            0 ICorTp=0 IEmpDi=  4
 NAtoms=   13 NActive=   13 NUniq=   13 SFac= 1.00D+00 NAtFMM=   60 NAOKFM=F Big=F
 Integral buffers will be    131072 words long.
 Raffenetti 2 integral format.
 Two-electron integral symmetry is turned on.
 Leave Link  301 at Wed Mar 27 14:14:36 2024, MaxMem=  1073741824 cpu:               0.4 elap:               0.1
 (Enter /apps/versions/2023.01/rocky8/x86_64/generic/software/Gaussian/16.B.01/g16/l302.exe)
 NPDir=0 NMtPBC=     1 NCelOv=     1 NCel=       1 NClECP=     1 NCelD=      1
         NCelK=      1 NCelE2=     1 NClLst=     1 CellRange=     0.0.
 One-electron integrals computed using PRISM.
 One-electron integral symmetry used in STVInt
 NBasis=   117 RedAO= T EigKep=  4.87D-04  NBF=   117
 NBsUse=   117 1.00D-06 EigRej= -1.00D+00 NBFU=   117
 Precomputing XC quadrature grid using
 IXCGrd= 4 IRadAn=           5 IRanWt=          -1 IRanGd=           0 AccXCQ= 0.00D+00.
 Generated NRdTot=       0 NPtTot=           0 NUsed=           0 NTot=          32
 NSgBfM=   117   117   117   117   117 MxSgAt=    13 MxSgA2=    13.
 Leave Link  302 at Wed Mar 27 14:14:37 2024, MaxMem=  1073741824 cpu:               1.6 elap:               0.8
 (Enter /apps/versions/2023.01/rocky8/x86_64/generic/software/Gaussian/16.B.01/g16/l303.exe)
 DipDrv:  MaxL=1.
 Leave Link  303 at Wed Mar 27 14:14:37 2024, MaxMem=  1073741824 cpu:               0.4 elap:               0.1
 (Enter /apps/versions/2023.01/rocky8/x86_64/generic/software/Gaussian/16.B.01/g16/l401.exe)
 Initial guess from the checkpoint file:  "098457434.chk"
 B after Tr=    -0.000000    0.000000    0.000000
         Rot=    0.999984   -0.000002    0.000010   -0.005627 Ang=  -0.64 deg.
 Guess basis will be translated and rotated to current coordinates.
 JPrj=2 DoOrth=T DoCkMO=T.
 Generating alternative initial guess.
 ExpMin= 1.61D-01 ExpMax= 5.48D+03 ExpMxC= 8.25D+02 IAcc=3 IRadAn=         5 AccDes= 0.00D+00
 Harris functional with IExCor=  402 and IRadAn=       5 diagonalized for initial guess.
 HarFok:  IExCor=  402 AccDes= 0.00D+00 IRadAn=         5 IDoV= 1 UseB2=F ITyADJ=14
 ICtDFT=  3500011 ScaDFX=  1.000000  1.000000  1.000000  1.000000
 FoFCou: FMM=F IPFlag=           0 FMFlag=      100000 FMFlg1=           0
         NFxFlg=           0 DoJE=T BraDBF=F KetDBF=T FulRan=T
         wScrn=  0.000000 ICntrl=       500 IOpCl=  0 I1Cent=   200000004 NGrid=           0
         NMat0=    1 NMatS0=      1 NMatT0=    0 NMatD0=    1 NMtDS0=    0 NMtDT0=    0
 Petite list used in FoFCou.
 Harris En= -307.495746204643    
 Leave Link  401 at Wed Mar 27 14:14:39 2024, MaxMem=  1073741824 cpu:               4.6 elap:               2.3
 (Enter /apps/versions/2023.01/rocky8/x86_64/generic/software/Gaussian/16.B.01/g16/l502.exe)
 Integral symmetry usage will be decided dynamically.
 Closed shell SCF:
 Using DIIS extrapolation, IDIIS=  1040.
 NGot=  1073741824 LenX=  1073712108 LenY=  1073697978
 Requested convergence on RMS density matrix=1.00D-08 within 128 cycles.
 Requested convergence on MAX density matrix=1.00D-06.
 Requested convergence on             energy=1.00D-06.
 No special actions if energy rises.
 Fock matrices will be formed incrementally for  20 cycles.
 Integral accuracy reduced to 1.0D-05 until final iterations.

 Cycle   1  Pass 0  IDiag  1:
 FoFJK:  IHMeth= 1 ICntrl=       0 DoSepK=F KAlg= 0 I1Cent=           0 FoldK=F
 IRaf= 980000000 NMat=       1 IRICut=       1 DoRegI=T DoRafI=F ISym2E= 0 IDoP0=0 IntGTp=1.
 FoFCou: FMM=F IPFlag=           0 FMFlag=      100000 FMFlg1=           0
         NFxFlg=           0 DoJE=F BraDBF=F KetDBF=F FulRan=T
         wScrn=  0.000000 ICntrl=         0 IOpCl=  0 I1Cent=           0 NGrid=           0
         NMat0=    1 NMatS0=      1 NMatT0=    0 NMatD0=    1 NMtDS0=    0 NMtDT0=    0
 Symmetry not used in FoFCou.
 E= -307.463978695814    
 DIIS: error= 2.18D-03 at cycle   1 NSaved=   1.
 NSaved= 1 IEnMin= 1 EnMin= -307.463978695814     IErMin= 1 ErrMin= 2.18D-03
 ErrMax= 2.18D-03  0.00D+00 EMaxC= 1.00D-01 BMatC= 7.20D-04 BMatP= 7.20D-04
 IDIUse=3 WtCom= 9.78D-01 WtEn= 2.18D-02
 Coeff-Com:  0.100D+01
 Coeff-En:   0.100D+01
 Coeff:      0.100D+01
 Gap=     1.842 Goal=   None    Shift=    0.000
 GapD=    1.842 DampG=2.000 DampE=1.000 DampFc=2.0000 IDamp=-1.
 RMSDP=3.84D-04 MaxDP=8.91D-03              OVMax= 7.91D-03

 Cycle   2  Pass 0  IDiag  1:
 RMSU=  3.84D-04    CP:  1.00D+00
 E= -307.464597781878     Delta-E=       -0.000619086065 Rises=F Damp=F
 DIIS: error= 1.82D-03 at cycle   2 NSaved=   2.
 NSaved= 2 IEnMin= 2 EnMin= -307.464597781878     IErMin= 2 ErrMin= 1.82D-03
 ErrMax= 1.82D-03  0.00D+00 EMaxC= 1.00D-01 BMatC= 2.60D-04 BMatP= 7.20D-04
 IDIUse=3 WtCom= 9.82D-01 WtEn= 1.82D-02
 Coeff-Com:  0.325D+00 0.675D+00
 Coeff-En:   0.000D+00 0.100D+01
 Coeff:      0.319D+00 0.681D+00
 Gap=     0.219 Goal=   None    Shift=    0.000
 RMSDP=2.06D-04 MaxDP=6.70D-03 DE=-6.19D-04 OVMax= 9.99D-03

 Cycle   3  Pass 0  IDiag  1:
 RMSU=  1.94D-04    CP:  1.00D+00  8.21D-01
 E= -307.464663392613     Delta-E=       -0.000065610735 Rises=F Damp=F
 DIIS: error= 1.45D-03 at cycle   3 NSaved=   3.
 NSaved= 3 IEnMin= 3 EnMin= -307.464663392613     IErMin= 3 ErrMin= 1.45D-03
 ErrMax= 1.45D-03  0.00D+00 EMaxC= 1.00D-01 BMatC= 1.64D-04 BMatP= 2.60D-04
 IDIUse=3 WtCom= 9.86D-01 WtEn= 1.45D-02
 Coeff-Com:  0.208D-01 0.439D+00 0.540D+00
 Coeff-En:   0.000D+00 0.419D+00 0.581D+00
 Coeff:      0.205D-01 0.439D+00 0.541D+00
 Gap=     0.220 Goal=   None    Shift=    0.000
 RMSDP=1.14D-04 MaxDP=2.87D-03 DE=-6.56D-05 OVMax= 5.58D-03

 Cycle   4  Pass 0  IDiag  1:
 RMSU=  4.01D-05    CP:  1.00D+00  9.09D-01  4.78D-01
 E= -307.464797118869     Delta-E=       -0.000133726256 Rises=F Damp=F
 DIIS: error= 2.07D-04 at cycle   4 NSaved=   4.
 NSaved= 4 IEnMin= 4 EnMin= -307.464797118869     IErMin= 4 ErrMin= 2.07D-04
 ErrMax= 2.07D-04  0.00D+00 EMaxC= 1.00D-01 BMatC= 4.04D-06 BMatP= 1.64D-04
 IDIUse=3 WtCom= 9.98D-01 WtEn= 2.07D-03
 Coeff-Com: -0.613D-02 0.155D+00 0.244D+00 0.607D+00
 Coeff-En:   0.000D+00 0.000D+00 0.000D+00 0.100D+01
 Coeff:     -0.612D-02 0.155D+00 0.244D+00 0.608D+00
 Gap=     0.220 Goal=   None    Shift=    0.000
 RMSDP=2.53D-05 MaxDP=5.35D-04 DE=-1.34D-04 OVMax= 1.23D-03

 Cycle   5  Pass 0  IDiag  1:
 RMSU=  1.46D-05    CP:  1.00D+00  9.06D-01  5.43D-01  5.89D-01
 E= -307.464800516109     Delta-E=       -0.000003397240 Rises=F Damp=F
 DIIS: error= 1.20D-04 at cycle   5 NSaved=   5.
 NSaved= 5 IEnMin= 5 EnMin= -307.464800516109     IErMin= 5 ErrMin= 1.20D-04
 ErrMax= 1.20D-04  0.00D+00 EMaxC= 1.00D-01 BMatC= 9.58D-07 BMatP= 4.04D-06
 IDIUse=3 WtCom= 9.99D-01 WtEn= 1.20D-03
 Coeff-Com: -0.610D-02 0.557D-01 0.104D+00 0.382D+00 0.465D+00
 Coeff-En:   0.000D+00 0.000D+00 0.000D+00 0.181D+00 0.819D+00
 Coeff:     -0.609D-02 0.556D-01 0.104D+00 0.382D+00 0.465D+00
 Gap=     0.220 Goal=   None    Shift=    0.000
 RMSDP=9.17D-06 MaxDP=1.80D-04 DE=-3.40D-06 OVMax= 4.47D-04

 Initial convergence to 1.0D-05 achieved.  Increase integral accuracy.
 Cycle   6  Pass 1  IDiag  1:
 E= -307.464791952367     Delta-E=        0.000008563742 Rises=F Damp=F
 DIIS: error= 1.85D-05 at cycle   1 NSaved=   1.
 NSaved= 1 IEnMin= 1 EnMin= -307.464791952367     IErMin= 1 ErrMin= 1.85D-05
 ErrMax= 1.85D-05  0.00D+00 EMaxC= 1.00D-01 BMatC= 2.93D-08 BMatP= 2.93D-08
 IDIUse=1 WtCom= 1.00D+00 WtEn= 0.00D+00
 Coeff-Com:  0.100D+01
 Coeff:      0.100D+01
 Gap=     0.220 Goal=   None    Shift=    0.000
 RMSDP=9.17D-06 MaxDP=1.80D-04 DE= 8.56D-06 OVMax= 1.94D-04

 Cycle   7  Pass 1  IDiag  1:
 RMSU=  4.58D-06    CP:  1.00D+00
 E= -307.464791903782     Delta-E=        0.000000048584 Rises=F Damp=F
 DIIS: error= 3.55D-05 at cycle   2 NSaved=   2.
 NSaved= 2 IEnMin= 1 EnMin= -307.464791952367     IErMin= 1 ErrMin= 1.85D-05
 ErrMax= 3.55D-05  0.00D+00 EMaxC= 1.00D-01 BMatC= 7.24D-08 BMatP= 2.93D-08
 IDIUse=1 WtCom= 1.00D+00 WtEn= 0.00D+00
 Coeff-Com:  0.616D+00 0.384D+00
 Coeff:      0.616D+00 0.384D+00
 Gap=     0.220 Goal=   None    Shift=    0.000
 RMSDP=2.64D-06 MaxDP=4.52D-05 DE= 4.86D-08 OVMax= 1.39D-04

 Cycle   8  Pass 1  IDiag  1:
 RMSU=  1.21D-06    CP:  1.00D+00  4.89D-01
 E= -307.464791983166     Delta-E=       -0.000000079384 Rises=F Damp=F
 DIIS: error= 4.39D-06 at cycle   3 NSaved=   3.
 NSaved= 3 IEnMin= 3 EnMin= -307.464791983166     IErMin= 3 ErrMin= 4.39D-06
 ErrMax= 4.39D-06  0.00D+00 EMaxC= 1.00D-01 BMatC= 1.64D-09 BMatP= 2.93D-08
 IDIUse=1 WtCom= 1.00D+00 WtEn= 0.00D+00
 Coeff-Com:  0.263D+00 0.195D+00 0.541D+00
 Coeff:      0.263D+00 0.195D+00 0.541D+00
 Gap=     0.220 Goal=   None    Shift=    0.000
 RMSDP=4.56D-07 MaxDP=9.25D-06 DE=-7.94D-08 OVMax= 2.05D-05

 Cycle   9  Pass 1  IDiag  1:
 RMSU=  3.41D-07    CP:  1.00D+00  5.08D-01  7.61D-01
 E= -307.464791984838     Delta-E=       -0.000000001671 Rises=F Damp=F
 DIIS: error= 9.03D-07 at cycle   4 NSaved=   4.
 NSaved= 4 IEnMin= 4 EnMin= -307.464791984838     IErMin= 4 ErrMin= 9.03D-07
 ErrMax= 9.03D-07  0.00D+00 EMaxC= 1.00D-01 BMatC= 1.23D-10 BMatP= 1.64D-09
 IDIUse=1 WtCom= 1.00D+00 WtEn= 0.00D+00
 Coeff-Com:  0.296D-01 0.308D-01 0.239D+00 0.701D+00
 Coeff:      0.296D-01 0.308D-01 0.239D+00 0.701D+00
 Gap=     0.220 Goal=   None    Shift=    0.000
 RMSDP=1.33D-07 MaxDP=2.04D-06 DE=-1.67D-09 OVMax= 6.32D-06

 Cycle  10  Pass 1  IDiag  1:
 RMSU=  8.32D-08    CP:  1.00D+00  5.05D-01  8.12D-01  7.58D-01
 E= -307.464791984948     Delta-E=       -0.000000000111 Rises=F Damp=F
 DIIS: error= 6.03D-07 at cycle   5 NSaved=   5.
 NSaved= 5 IEnMin= 5 EnMin= -307.464791984948     IErMin= 5 ErrMin= 6.03D-07
 ErrMax= 6.03D-07  0.00D+00 EMaxC= 1.00D-01 BMatC= 2.80D-11 BMatP= 1.23D-10
 IDIUse=1 WtCom= 1.00D+00 WtEn= 0.00D+00
 Coeff-Com: -0.125D-02 0.472D-02 0.108D+00 0.425D+00 0.463D+00
 Coeff:     -0.125D-02 0.472D-02 0.108D+00 0.425D+00 0.463D+00
 Gap=     0.220 Goal=   None    Shift=    0.000
 RMSDP=4.29D-08 MaxDP=1.34D-06 DE=-1.11D-10 OVMax= 2.09D-06

 Cycle  11  Pass 1  IDiag  1:
 RMSU=  2.18D-08    CP:  1.00D+00  5.08D-01  8.13D-01  7.92D-01  6.06D-01
 E= -307.464791984972     Delta-E=       -0.000000000024 Rises=F Damp=F
 DIIS: error= 6.10D-08 at cycle   6 NSaved=   6.
 NSaved= 6 IEnMin= 6 EnMin= -307.464791984972     IErMin= 6 ErrMin= 6.10D-08
 ErrMax= 6.10D-08  0.00D+00 EMaxC= 1.00D-01 BMatC= 6.14D-13 BMatP= 2.80D-11
 IDIUse=1 WtCom= 1.00D+00 WtEn= 0.00D+00
 Coeff-Com: -0.324D-02-0.472D-03 0.283D-01 0.133D+00 0.196D+00 0.646D+00
 Coeff:     -0.324D-02-0.472D-03 0.283D-01 0.133D+00 0.196D+00 0.646D+00
 Gap=     0.220 Goal=   None    Shift=    0.000
 RMSDP=7.93D-09 MaxDP=1.74D-07 DE=-2.36D-11 OVMax= 1.59D-07

 SCF Done:  E(RB3LYP) =  -307.464791985     A.U. after   11 cycles
            NFock= 11  Conv=0.79D-08     -V/T= 2.0095
 KE= 3.045725426789D+02 PE=-1.256848017523D+03 EE= 3.739296096488D+02
 Leave Link  502 at Wed Mar 27 14:14:56 2024, MaxMem=  1073741824 cpu:              33.6 elap:              16.8
 (Enter /apps/versions/2023.01/rocky8/x86_64/generic/software/Gaussian/16.B.01/g16/l701.exe)
 ... and contract with generalized density number  0.
 Compute integral first derivatives.
 Leave Link  701 at Wed Mar 27 14:14:57 2024, MaxMem=  1073741824 cpu:               1.3 elap:               0.6
 (Enter /apps/versions/2023.01/rocky8/x86_64/generic/software/Gaussian/16.B.01/g16/l702.exe)
 L702 exits ... SP integral derivatives will be done elsewhere.
 Leave Link  702 at Wed Mar 27 14:14:57 2024, MaxMem=  1073741824 cpu:               0.3 elap:               0.1
 (Enter /apps/versions/2023.01/rocky8/x86_64/generic/software/Gaussian/16.B.01/g16/l703.exe)
 Integral derivatives from FoFJK, PRISM(SPDF).
 Compute integral first derivatives, UseDBF=F ICtDFT=           0.
 Calling FoFJK, ICntrl=      2127 FMM=F ISym2X=0 I1Cent= 0 IOpClX= 0 NMat=1 NMatS=1 NMatT=0.
 FoFJK:  IHMeth= 1 ICntrl=    2127 DoSepK=F KAlg= 0 I1Cent=           0 FoldK=F
 IRaf=         0 NMat=       1 IRICut=       1 DoRegI=T DoRafI=F ISym2E= 0 IDoP0=0 IntGTp=1.
 FoFCou: FMM=F IPFlag=           0 FMFlag=      100000 FMFlg1=         800
         NFxFlg=           0 DoJE=F BraDBF=F KetDBF=F FulRan=T
         wScrn=  0.000000 ICntrl=      2127 IOpCl=  0 I1Cent=           0 NGrid=           0
         NMat0=    1 NMatS0=      1 NMatT0=    0 NMatD0=    1 NMtDS0=    0 NMtDT0=    0
 Symmetry not used in FoFCou.
 Leave Link  703 at Wed Mar 27 14:15:02 2024, MaxMem=  1073741824 cpu:              10.1 elap:               5.0
 (Enter /apps/versions/2023.01/rocky8/x86_64/generic/software/Gaussian/16.B.01/g16/l716.exe)
 Dipole        = 2.65789688D-02 5.33069874D-01 1.04175571D-02
 ***** Axes restored to original set *****
 -------------------------------------------------------------------
 Center     Atomic                   Forces (Hartrees/Bohr)
 Number     Number              X              Y              Z
 -------------------------------------------------------------------
      1        6           0.000169164   -0.000047626    0.000034589
      2        1           0.000147263    0.000064942   -0.000091180
      3        6          -0.000350515    0.000032185   -0.000018088
      4        1           0.000226909   -0.000032976    0.000023479
      5        6           0.000308486    0.000137362   -0.000097412
      6        1          -0.000135245    0.000143921   -0.000166668
      7        6           0.001481603   -0.000210596   -0.000034117
      8        1          -0.000213570   -0.000328505    0.000332945
      9        6          -0.000706242    0.001285262   -0.001240101
     10        1          -0.000145316    0.000033088    0.000137887
     11        6          -0.001340283    0.002788971   -0.002201040
     12        8          -0.001505370   -0.003278793    0.002822281
     13        1           0.002063116   -0.000587235    0.000497424
 -------------------------------------------------------------------
 Cartesian Forces:  Max     0.003278793 RMS     0.001096833
 Leave Link  716 at Wed Mar 27 14:15:02 2024, MaxMem=  1073741824 cpu:               0.3 elap:               0.1
 (Enter /apps/versions/2023.01/rocky8/x86_64/generic/software/Gaussian/16.B.01/g16/l103.exe)

 GradGradGradGradGradGradGradGradGradGradGradGradGradGradGradGradGradGrad
 Berny optimization.
 Using GEDIIS/GDIIS optimizer.
 FormGI is forming the generalized inverse of G from B-inverse, IUseBI=4.
 Internal  Forces:  Max     0.004212059 RMS     0.000882538
 Search for a local minimum.
 Step number   2 out of a maximum of  100
 All quantities printed in internal units (Hartrees-Bohrs-Radians)
 RMS Force = .88254D-03 SwitMx=.10000D-02 MixMth= 2
 Mixed Optimization -- En-DIIS/RFO-DIIS
 Update second derivatives using D2CorX and points    1    2
 DE= -2.08D-03 DEPred=-2.20D-03 R= 9.47D-01
 TightC=F SS=  1.41D+00  RLast= 1.19D-01 DXNew= 5.0454D-01 3.5573D-01
 Trust test= 9.47D-01 RLast= 1.19D-01 DXMaxT set to 3.56D-01
 ITU=  1  0
 Use linear search instead of GDIIS.
     Eigenvalues ---    0.02072   0.02090   0.02098   0.02125   0.02133
     Eigenvalues ---    0.02135   0.02137   0.02138   0.02149   0.02161
     Eigenvalues ---    0.15994   0.16000   0.16000   0.16000   0.16000
     Eigenvalues ---    0.17868   0.21985   0.22082   0.23490   0.25656
     Eigenvalues ---    0.35079   0.35197   0.35224   0.35227   0.35303
     Eigenvalues ---    0.41005   0.41766   0.42164   0.45792   0.46109
     Eigenvalues ---    0.46258   0.46592   0.53580
 RFO step:  Lambda=-1.21007665D-04 EMin= 2.07239247D-02
 Quartic linear search produced a step of -0.06802.
 Iteration  1 RMS(Cart)=  0.00480294 RMS(Int)=  0.00002885
 Iteration  2 RMS(Cart)=  0.00002754 RMS(Int)=  0.00000058
 Iteration  3 RMS(Cart)=  0.00000000 RMS(Int)=  0.00000058
 ITry= 1 IFail=0 DXMaxC= 1.83D-02 DCOld= 1.00D+10 DXMaxT= 3.56D-01 DXLimC= 3.00D+00 Rises=F
 Variable       Old X    -DE/DX   Delta X   Delta X   Delta X     New X
                                 (Linear)    (Quad)   (Total)
    R1        2.05215  -0.00001  -0.00002   0.00001  -0.00000   2.05214
    R2        2.63591   0.00027   0.00015   0.00029   0.00044   2.63635
    R3        2.64211  -0.00026  -0.00021  -0.00020  -0.00041   2.64170
    R4        2.05452  -0.00022  -0.00009  -0.00043  -0.00053   2.05399
    R5        2.63712   0.00028   0.00013   0.00033   0.00046   2.63758
    R6        2.05367   0.00015  -0.00004   0.00046   0.00042   2.05410
    R7        2.63251  -0.00017  -0.00000  -0.00030  -0.00030   2.63222
    R8        2.05664   0.00051  -0.00013   0.00156   0.00143   2.05807
    R9        2.64602  -0.00112   0.00025  -0.00270  -0.00245   2.64358
   R10        2.05173  -0.00016   0.00012  -0.00061  -0.00049   2.05124
   R11        2.64198   0.00159   0.00037   0.00273   0.00310   2.64508
   R12        2.57945   0.00421   0.00019   0.00731   0.00750   2.58695
   R13        1.83425  -0.00040   0.00561  -0.00932  -0.00371   1.83054
    A1        2.09927   0.00013   0.00006   0.00078   0.00085   2.10012
    A2        2.10283  -0.00025  -0.00004  -0.00125  -0.00129   2.10154
    A3        2.08109   0.00012  -0.00002   0.00047   0.00044   2.08153
    A4        2.09728  -0.00002  -0.00014   0.00036   0.00022   2.09750
    A5        2.10388   0.00019   0.00056  -0.00030   0.00026   2.10414
    A6        2.08202  -0.00017  -0.00042  -0.00006  -0.00048   2.08155
    A7        2.09485  -0.00002   0.00002  -0.00051  -0.00049   2.09437
    A8        2.10881  -0.00037  -0.00037  -0.00089  -0.00126   2.10755
    A9        2.07952   0.00040   0.00035   0.00140   0.00175   2.08127
   A10        2.10008  -0.00005   0.00008  -0.00030  -0.00023   2.09985
   A11        2.09019   0.00005  -0.00055   0.00095   0.00040   2.09059
   A12        2.09292   0.00000   0.00047  -0.00065  -0.00017   2.09275
   A13        2.12094  -0.00011  -0.00040   0.00019  -0.00021   2.12072
   A14        2.08680   0.00033   0.00049   0.00073   0.00122   2.08803
   A15        2.07544  -0.00022  -0.00010  -0.00091  -0.00101   2.07443
   A16        2.09560  -0.00031  -0.00012  -0.00095  -0.00107   2.09453
   A17        2.14566  -0.00163  -0.00095  -0.00457  -0.00552   2.14014
   A18        2.04192   0.00194   0.00107   0.00552   0.00659   2.04851
   A19        1.88266   0.00396   0.00531   0.01417   0.01947   1.90213
    D1        0.00047  -0.00001  -0.00004  -0.00021  -0.00025   0.00023
    D2       -3.14096  -0.00001  -0.00001  -0.00026  -0.00027  -3.14123
    D3       -3.14101  -0.00001   0.00013  -0.00078  -0.00066   3.14152
    D4        0.00074  -0.00001   0.00015  -0.00083  -0.00068   0.00006
    D5        0.00010  -0.00000  -0.00006   0.00002  -0.00004   0.00005
    D6        3.14143   0.00001   0.00011  -0.00005   0.00006   3.14149
    D7        3.14158  -0.00000  -0.00022   0.00059   0.00037  -3.14123
    D8       -0.00027   0.00001  -0.00005   0.00052   0.00047   0.00020
    D9        3.14062   0.00001  -0.00003   0.00045   0.00041   3.14104
   D10       -0.00059   0.00000  -0.00013   0.00047   0.00034  -0.00025
   D11       -0.00081   0.00001  -0.00001   0.00040   0.00039  -0.00042
   D12        3.14116   0.00000  -0.00011   0.00043   0.00032   3.14148
   D13        3.13897   0.00004  -0.00053   0.00336   0.00284  -3.14138
   D14       -0.00035  -0.00000  -0.00007   0.00015   0.00008  -0.00027
   D15       -0.00288   0.00005  -0.00036   0.00329   0.00293   0.00005
   D16        3.14099   0.00001   0.00010   0.00008   0.00018   3.14117
   D17       -0.00003   0.00000   0.00001   0.00020   0.00021   0.00019
   D18        3.13951   0.00003   0.00012   0.00101   0.00113   3.14064
   D19       -3.14125  -0.00000  -0.00009   0.00023   0.00014  -3.14111
   D20       -0.00171   0.00003   0.00002   0.00103   0.00106  -0.00065
   D21        0.00049  -0.00000   0.00009  -0.00051  -0.00042   0.00007
   D22       -3.13916  -0.00003  -0.00002  -0.00126  -0.00128  -3.14044
   D23       -3.13888  -0.00004   0.00054  -0.00364  -0.00311   3.14120
   D24        0.00465  -0.00007   0.00043  -0.00439  -0.00396   0.00069
   D25        0.01819  -0.00012   0.00030  -0.00642  -0.00613   0.01206
   D26       -3.12539  -0.00010   0.00041  -0.00565  -0.00524  -3.13064
         Item               Value     Threshold  Converged?
 Maximum Force            0.004212     0.000450     NO 
 RMS     Force            0.000883     0.000300     NO 
 Maximum Displacement     0.018253     0.001800     NO 
 RMS     Displacement     0.004788     0.001200     NO 
 Predicted change in Energy=-7.463370D-05
 Lowest energy point so far.  Saving SCF results.
 GradGradGradGradGradGradGradGradGradGradGradGradGradGradGradGradGradGrad

 Leave Link  103 at Wed Mar 27 14:15:02 2024, MaxMem=  1073741824 cpu:               0.3 elap:               0.1
 (Enter /apps/versions/2023.01/rocky8/x86_64/generic/software/Gaussian/16.B.01/g16/l202.exe)
                          Input orientation:                          
 ---------------------------------------------------------------------
 Center     Atomic      Atomic             Coordinates (Angstroms)
 Number     Number       Type             X           Y           Z
 ---------------------------------------------------------------------
      1          6           0       -2.670097    4.998353   -2.692582
      2          1           0       -3.338609    5.666902   -3.226826
      3          6           0       -3.179398    4.073616   -1.780568
      4          1           0       -4.249687    4.017124   -1.599743
      5          6           0       -1.290377    5.054622   -2.910327
      6          1           0       -0.880628    5.770755   -3.617991
      7          6           0       -2.324538    3.212357   -1.090961
      8          1           0       -2.726405    2.492339   -0.379497
      9          6           0       -0.426346    4.200613   -2.228923
     10          1           0        0.646831    4.233889   -2.388378
     11          6           0       -0.945198    3.275652   -1.315443
     12          8           0       -0.054418    2.460182   -0.670808
     13          1           0       -0.541130    1.866595   -0.079954
 ---------------------------------------------------------------------
                    Distance matrix (angstroms):
                    1          2          3          4          5
     1  C    0.000000
     2  H    1.085948   0.000000
     3  C    1.395098   2.157677   0.000000
     4  H    2.156899   2.489825   1.086925   0.000000
     5  C    1.397929   2.161090   2.409799   3.398757   0.000000
     6  H    2.157588   2.491078   3.397168   4.301059   1.086982
     7  C    2.423712   3.408085   1.395747   2.147721   2.788104
     8  H    3.410812   4.308123   2.160703   2.476764   3.877186
     9  C    2.426064   3.409852   2.792212   3.879107   1.392909
    10  H    3.417448   4.317436   3.877519   4.964355   2.167674
    11  C    2.799908   3.885856   2.417590   3.398567   2.414030
    12  O    4.167932   5.253778   3.687850   4.570259   3.643372
    13  H    4.600677   5.671950   3.837120   4.548399   4.328498
                    6          7          8          9         10
     6  H    0.000000
     7  C    3.875069   0.000000
     8  H    4.964147   1.089084   0.000000
     9  C    2.145048   2.423787   3.410110   0.000000
    10  H    2.491392   3.399390   4.295034   1.085468   0.000000
    11  C    3.395797   1.398921   2.159230   1.399716   2.145685
    12  O    4.508703   2.428115   2.688013   2.365407   2.566677
    13  H    5.279718   2.452296   2.292751   3.174725   3.513424
                   11         12         13
    11  C    0.000000
    12  O    1.368954   0.000000
    13  H    1.917066   0.968680   0.000000
 Stoichiometry    C6H6O
 Framework group  C1[X(C6H6O)]
 Deg. of freedom    33
 Full point group                 C1      NOp   1
 RotChk:  IX=0 Diff= 5.93D-03
 Largest Abelian subgroup         C1      NOp   1
 Largest concise Abelian subgroup C1      NOp   1
                         Standard orientation:                         
 ---------------------------------------------------------------------
 Center     Atomic      Atomic             Coordinates (Angstroms)
 Number     Number       Type             X           Y           Z
 ---------------------------------------------------------------------
      1          6           0       -1.857825    0.028388    0.000102
      2          1           0       -2.943588    0.048388   -0.000102
      3          6           0       -1.131318    1.219389   -0.000060
      4          1           0       -1.648939    2.175148   -0.000179
      5          6           0       -1.172553   -1.190057    0.000158
      6          1           0       -1.726647   -2.125209   -0.000053
      7          6           0        0.264284    1.199299   -0.000239
      8          1           0        0.827439    2.131480   -0.000888
      9          6           0        0.219940   -1.224082    0.000297
     10          1           0        0.764458   -2.163093    0.000148
     11          6           0        0.941579   -0.024731    0.000053
     12          8           0        2.307735   -0.112209   -0.001199
     13          1           0        2.680749    0.781716    0.008801
 ---------------------------------------------------------------------
 Rotational constants (GHZ):           5.6480208           2.6115812           1.7858337
 Leave Link  202 at Wed Mar 27 14:15:02 2024, MaxMem=  1073741824 cpu:               0.0 elap:               0.0
 (Enter /apps/versions/2023.01/rocky8/x86_64/generic/software/Gaussian/16.B.01/g16/l301.exe)
 Standard basis: 6-31G(d) (6D, 7F)
 Ernie: Thresh=  0.10000D-02 Tol=  0.10000D-05 Strict=F.
 There are   117 symmetry adapted cartesian basis functions of A   symmetry.
 There are   117 symmetry adapted basis functions of A   symmetry.
   117 basis functions,   220 primitive gaussians,   117 cartesian basis functions
    25 alpha electrons       25 beta electrons
       nuclear repulsion energy       270.7194192233 Hartrees.
 IExCor=  402 DFT=T Ex+Corr=B3LYP ExCW=0 ScaHFX=  0.200000
 ScaDFX=  0.800000  0.720000  1.000000  0.810000 ScalE2=  1.000000  1.000000
 IRadAn=      5 IRanWt=     -1 IRanGd=            0 ICorTp=0 IEmpDi=  4
 NAtoms=   13 NActive=   13 NUniq=   13 SFac= 1.00D+00 NAtFMM=   60 NAOKFM=F Big=F
 Integral buffers will be    131072 words long.
 Raffenetti 2 integral format.
 Two-electron integral symmetry is turned on.
 Leave Link  301 at Wed Mar 27 14:15:03 2024, MaxMem=  1073741824 cpu:               0.4 elap:               0.2
 (Enter /apps/versions/2023.01/rocky8/x86_64/generic/software/Gaussian/16.B.01/g16/l302.exe)
 NPDir=0 NMtPBC=     1 NCelOv=     1 NCel=       1 NClECP=     1 NCelD=      1
         NCelK=      1 NCelE2=     1 NClLst=     1 CellRange=     0.0.
 One-electron integrals computed using PRISM.
 One-electron integral symmetry used in STVInt
[...]
 **** Fit      -0.009991
 **** Fit      -0.010476
 **** Fit      -0.010806
 **** Fit      -0.010991
 **** Fit      -0.011037
 **** Fit      -0.010951
 **** Fit      -0.010740
 **** Fit      -0.010407
 **** Fit      -0.009956
 **** Fit      -0.009393
 **** Fit      -0.008720
 **** Fit      -0.007942
 **** Fit      -0.007063
 **** Fit      -0.006086
 **** Fit      -0.005015
 **** Fit      -0.003855
 **** Fit      -0.002611
 **** Fit      -0.001389
 **** Fit      -0.000002
 **** Fit       0.001448
 **** Fit       0.002955
 **** Fit       0.004507
 **** Fit      -0.009957
 **** Fit      -0.010445
 **** Fit      -0.010781
 **** Fit      -0.010973
 **** Fit      -0.011028
 **** Fit      -0.010951
 **** Fit      -0.010749
 **** Fit      -0.010426
 **** Fit      -0.009984
 **** Fit      -0.009430
 **** Fit      -0.008766
 **** Fit      -0.007996
 **** Fit      -0.007125
 **** Fit      -0.006155
 **** Fit      -0.005092
 **** Fit      -0.003940
 **** Fit      -0.002703
 **** Fit      -0.001526
 **** Fit      -0.000142
 **** Fit       0.001306
 **** Fit       0.002809
 **** Fit       0.004355
 **** Fit      -0.009845
 **** Fit      -0.010356
 **** Fit      -0.010717
 **** Fit      -0.010934
 **** Fit      -0.011013
 **** Fit      -0.010960
 **** Fit      -0.010779
 **** Fit      -0.010475
 **** Fit      -0.010052
 **** Fit      -0.009512
 **** Fit      -0.008861
 **** Fit      -0.008103
 **** Fit      -0.007240
 **** Fit      -0.006277
 **** Fit      -0.005219
 **** Fit      -0.004071
 **** Fit      -0.002838
 **** Fit      -0.001697
 **** Fit      -0.000325
 **** Fit       0.001110
 **** Fit       0.002598
 **** Fit       0.004127
 **** Fit      -0.009769
 **** Fit      -0.010286
 **** Fit      -0.010659
 **** Fit      -0.010892
 **** Fit      -0.010990
 **** Fit      -0.010957
 **** Fit      -0.010796
 **** Fit      -0.010511
 **** Fit      -0.010106
 **** Fit      -0.009584
 **** Fit      -0.008949
 **** Fit      -0.008205
 **** Fit      -0.007355
 **** Fit      -0.006405
 **** Fit      -0.005358
 **** Fit      -0.004221
 **** Fit      -0.002998
 **** Fit      -0.001900
 **** Fit      -0.000549
 **** Fit       0.000863
 **** Fit       0.002325
 **** Fit       0.003824
 **** Fit      -0.009737
 **** Fit      -0.010241
 **** Fit      -0.010613
 **** Fit      -0.010853
 **** Fit      -0.010962
 **** Fit      -0.010944
 **** Fit      -0.010800
 **** Fit      -0.010534
 **** Fit      -0.010147
 **** Fit      -0.009644
 **** Fit      -0.009027
 **** Fit      -0.008301
 **** Fit      -0.007469
 **** Fit      -0.006536
 **** Fit      -0.005507
 **** Fit      -0.004387
 **** Fit      -0.003182
 **** Fit      -0.002132
 **** Fit      -0.000794
 **** Fit       0.000603
 **** Fit       0.002046
 **** Fit       0.003523
 **** Fit      -0.010144
 **** Fit      -0.010526
 **** Fit      -0.010786
 **** Fit      -0.010921
 **** Fit      -0.010931
 **** Fit      -0.010817
 **** Fit      -0.010579
 **** Fit      -0.010220
 **** Fit      -0.009743
 **** Fit      -0.009149
 **** Fit      -0.008444
 **** Fit      -0.007631
 **** Fit      -0.006714
 **** Fit      -0.005700
 **** Fit      -0.004593
 **** Fit      -0.003402
 **** Fit      -0.002389
 **** Fit      -0.001073
 **** Fit       0.000299
 **** Fit       0.001714
 **** Fit       0.003157
 **** Fit       0.004611
 **** Fit      -0.010090
 **** Fit      -0.010461
 **** Fit      -0.010725
 **** Fit      -0.010876
 **** Fit      -0.010907
 **** Fit      -0.010818
 **** Fit      -0.010607
 **** Fit      -0.010276
 **** Fit      -0.009825
 **** Fit      -0.009257
 **** Fit      -0.008576
 **** Fit      -0.007786
 **** Fit      -0.006891
 **** Fit      -0.005897
 **** Fit      -0.004810
 **** Fit      -0.003638
 **** Fit      -0.002667
 **** Fit      -0.001381
 **** Fit      -0.000044
 **** Fit       0.001332
 **** Fit       0.002730
 **** Fit       0.004131
 **** Fit      -0.010095
 **** Fit      -0.010430
 **** Fit      -0.010680
 **** Fit      -0.010832
 **** Fit      -0.010875
 **** Fit      -0.010805
 **** Fit      -0.010618
 **** Fit      -0.010312
 **** Fit      -0.009889
 **** Fit      -0.009349
 **** Fit      -0.008695
 **** Fit      -0.007932
 **** Fit      -0.007063
 **** Fit      -0.006094
 **** Fit      -0.005034
 **** Fit      -0.003888
 **** Fit      -0.002963
 **** Fit      -0.001699
 **** Fit      -0.000385
 **** Fit       0.000961
 **** Fit       0.002322
 **** Fit       0.003676
 **** Fit       0.005002
 **** Fit      -0.010388
 **** Fit      -0.010621
 **** Fit      -0.010777
 **** Fit      -0.010840
 **** Fit      -0.010798
 **** Fit      -0.010643
 **** Fit      -0.010373
 **** Fit      -0.009984
 **** Fit      -0.009478
 **** Fit      -0.008855
 **** Fit      -0.008119
 **** Fit      -0.007276
 **** Fit      -0.006330
 **** Fit      -0.005290
 **** Fit      -0.004164
 **** Fit      -0.003272
 **** Fit      -0.002037
 **** Fit      -0.000758
 **** Fit       0.000549
 **** Fit       0.001861
 **** Fit       0.003156
 **** Fit       0.004410
 **** Fit      -0.010605
 **** Fit      -0.010740
 **** Fit      -0.010805
 **** Fit      -0.010779
 **** Fit      -0.010651
 **** Fit      -0.010412
 **** Fit      -0.010058
 **** Fit      -0.009586
 **** Fit      -0.008997
 **** Fit      -0.008293
 **** Fit      -0.007479
 **** Fit      -0.006561
 **** Fit      -0.005547
 **** Fit      -0.004447
 **** Fit      -0.003593
 **** Fit      -0.002375
 **** Fit      -0.001117
 **** Fit       0.000159
 **** Fit       0.001430
 **** Fit       0.002670
 **** Fit       0.003848
 **** Fit       0.004935
 **** Fit      -0.010722
 **** Fit      -0.010778
 **** Fit      -0.010768
 **** Fit      -0.010670
 **** Fit      -0.010470
 **** Fit      -0.010158
 **** Fit      -0.009727
 **** Fit      -0.009177
 **** Fit      -0.008507
 **** Fit      -0.007722
 **** Fit      -0.006828
 **** Fit      -0.005834
 **** Fit      -0.004751
 **** Fit      -0.003920
 **** Fit      -0.002748
 **** Fit      -0.001542
 **** Fit      -0.000326
 **** Fit       0.000872
 **** Fit       0.002023
 **** Fit       0.003096
 **** Fit       0.004059
 **** Fit       0.004880
 **** Fit       0.005528
 **** Fit      -0.010783
 **** Fit      -0.010787
 **** Fit      -0.010755
 **** Fit      -0.010658
 **** Fit      -0.010474
 **** Fit      -0.010188
 **** Fit      -0.009791
 **** Fit      -0.009276
 **** Fit      -0.008644
 **** Fit      -0.007896
 **** Fit      -0.007040
 **** Fit      -0.006083
 **** Fit      -0.005038
 **** Fit      -0.004253
 **** Fit      -0.003113
 **** Fit      -0.001947
 **** Fit      -0.000783
 **** Fit       0.000346
 **** Fit       0.001408
 **** Fit       0.002365
 **** Fit       0.003183
 **** Fit       0.003827
 **** Fit       0.004265
 **** Fit       0.004468
 **** Fit       0.004411
 **** Fit      -0.010852
 **** Fit      -0.010779
 **** Fit      -0.010673
 **** Fit      -0.010504
 **** Fit      -0.010247
 **** Fit      -0.009887
 **** Fit      -0.009413
 **** Fit      -0.008820
 **** Fit      -0.008110
 **** Fit      -0.007286
 **** Fit      -0.006359
 **** Fit      -0.005342
 **** Fit      -0.004590
 **** Fit      -0.003466
 **** Fit      -0.002326
 **** Fit      -0.001205
 **** Fit      -0.000145
 **** Fit       0.000813
 **** Fit       0.001627
 **** Fit       0.002255
 **** Fit       0.002657
 **** Fit       0.002802
 **** Fit       0.002661
 **** Fit      -0.010888
 **** Fit      -0.010743
 **** Fit      -0.010572
 **** Fit      -0.010341
 **** Fit      -0.010020
 **** Fit      -0.009590
 **** Fit      -0.009041
 **** Fit      -0.008368
 **** Fit      -0.007573
 **** Fit      -0.006668
 **** Fit      -0.005666
 **** Fit      -0.004929
 **** Fit      -0.003852
 **** Fit      -0.002772
 **** Fit      -0.001734
 **** Fit      -0.000783
 **** Fit       0.000031
 **** Fit       0.000661
 **** Fit       0.001062
 **** Fit       0.001196
 **** Fit       0.001034
 **** Fit       0.000558
 **** Fit      -0.010835
 **** Fit      -0.010625
 **** Fit      -0.010387
 **** Fit      -0.010084
 **** Fit      -0.009688
 **** Fit      -0.009180
 **** Fit      -0.008549
 **** Fit      -0.007797
 **** Fit      -0.006930
 **** Fit      -0.005966
 **** Fit      -0.005272
 **** Fit      -0.004224
 **** Fit      -0.003193
 **** Fit      -0.002237
 **** Fit      -0.001417
 **** Fit      -0.000793
 **** Fit      -0.000419
 **** Fit      -0.000342
 **** Fit      -0.000593
 **** Fit      -0.010770
 **** Fit      -0.010501
 **** Fit      -0.010202
 **** Fit      -0.009836
 **** Fit      -0.009371
 **** Fit      -0.008784
 **** Fit      -0.008069
 **** Fit      -0.007231
 **** Fit      -0.006289
 **** Fit      -0.005621
 **** Fit      -0.004607
 **** Fit      -0.003643
 **** Fit      -0.002807
 **** Fit      -0.002178
 **** Fit      -0.001828
 **** Fit      -0.001813
 **** Fit      -0.002165
 **** Fit      -0.010333
 **** Fit      -0.009981
 **** Fit      -0.009552
 **** Fit      -0.009011
 **** Fit      -0.008339
 **** Fit      -0.007534
 **** Fit      -0.006615
 **** Fit      -0.005978
 **** Fit      -0.005009
 **** Fit      -0.004144
 **** Fit      -0.003493
 **** Fit      -0.003157
 **** Fit      -0.003213
 **** Fit      -0.010112
 **** Fit      -0.009721
 **** Fit      -0.009231
 **** Fit      -0.008610
 **** Fit      -0.007844
 **** Fit      -0.006950
 **** Fit      -0.006349
 **** Fit      -0.005441
 **** Fit      -0.004739
 **** Fit      -0.004404
 **** Fit      -0.004547
 **** Fit      -0.009418
 **** Fit      -0.008876
 **** Fit      -0.008165
 **** Fit      -0.007299
 **** Fit      -0.006741
 **** Fit      -0.005935
 **** Fit      -0.005566
 **** Fit      -0.009057
 **** Fit      -0.008487
 **** Fit      -0.007675
 **** Fit      -0.007163
 **** Fit      -0.006640
 **** Fit      -0.008070
 **** Fit      -0.007627
 **** Fit       0.005689
 **** Fit       0.006410
 **** Fit       0.006888
 **** Fit       0.007105
 **** Fit       0.007040
 **** Fit       0.006323
 **** Fit       0.007165
 **** Fit       0.007812
 **** Fit       0.008255
 **** Fit       0.008481
 **** Fit       0.008471
 **** Fit       0.005763
 **** Fit       0.006840
 **** Fit       0.007758
 **** Fit       0.008514
 **** Fit       0.009106
 **** Fit       0.009527
 **** Fit       0.009768
 **** Fit       0.009814
 **** Fit       0.006166
 **** Fit       0.007267
 **** Fit       0.008230
 **** Fit       0.009055
 **** Fit       0.009744
 **** Fit       0.010295
 **** Fit       0.010704
 **** Fit       0.010964
 **** Fit       0.011066
 **** Fit       0.010991
 **** Fit       0.005281
 **** Fit       0.006511
 **** Fit       0.007619
 **** Fit       0.008606
 **** Fit       0.009474
 **** Fit       0.010225
 **** Fit       0.010861
 **** Fit       0.011381
 **** Fit       0.011784
 **** Fit       0.012067
 **** Fit       0.012222
 **** Fit       0.012237
 **** Fit       0.005632
 **** Fit       0.006861
 **** Fit       0.007976
 **** Fit       0.008981
 **** Fit       0.009878
 **** Fit       0.010670
 **** Fit       0.011359
 **** Fit       0.011949
 **** Fit       0.012440
 **** Fit       0.012832
 **** Fit       0.013123
 **** Fit       0.013310
 **** Fit       0.005933
 **** Fit       0.007152
 **** Fit       0.008266
 **** Fit       0.009278
 **** Fit       0.010192
 **** Fit       0.011010
 **** Fit       0.011737
 **** Fit       0.012375
 **** Fit       0.012928
 **** Fit       0.013398
 **** Fit       0.013786
 **** Fit       0.014093
 **** Fit       0.014318
 **** Fit       0.006222
 **** Fit       0.007439
 **** Fit       0.008556
 **** Fit       0.009576
 **** Fit       0.010503
 **** Fit       0.011342
 **** Fit       0.012095
 **** Fit       0.012766
 **** Fit       0.013360
 **** Fit       0.013880
 **** Fit       0.014330
 **** Fit       0.014714
 **** Fit       0.015034
 **** Fit       0.005148
 **** Fit       0.006457
 **** Fit       0.007666
 **** Fit       0.008779
 **** Fit       0.009801
 **** Fit       0.010735
 **** Fit       0.011585
 **** Fit       0.012356
 **** Fit       0.013051
 **** Fit       0.013675
 **** Fit       0.014232
 **** Fit       0.014727
 **** Fit       0.015166
 **** Fit       0.015554
 **** Fit       0.015896
 **** Fit       0.005367
 **** Fit       0.006673
 **** Fit       0.007882
 **** Fit       0.008997
 **** Fit       0.010024
 **** Fit       0.010965
 **** Fit       0.011826
 **** Fit       0.012610
 **** Fit       0.013322
 **** Fit       0.013967
 **** Fit       0.014550
 **** Fit       0.015076
 **** Fit       0.015552
 **** Fit       0.015985
 **** Fit       0.016382
 **** Fit       0.005537
 **** Fit       0.006834
 **** Fit       0.008036
 **** Fit       0.009149
 **** Fit       0.010175
 **** Fit       0.011119
 **** Fit       0.011985
 **** Fit       0.012777
 **** Fit       0.013501
 **** Fit       0.014161
 **** Fit       0.014762
 **** Fit       0.015310
 **** Fit       0.015812
 **** Fit       0.016276
 **** Fit       0.016712
 **** Fit       0.005656
 **** Fit       0.006939
 **** Fit       0.008130
 **** Fit       0.009235
 **** Fit       0.010256
 **** Fit       0.011198
 **** Fit       0.012065
 **** Fit       0.012861
 **** Fit       0.013592
 **** Fit       0.014261
 **** Fit       0.014873
 **** Fit       0.015436
 **** Fit       0.015955
 **** Fit       0.016440
 **** Fit       0.016899
 **** Fit       0.017346
 **** Fit       0.005741
 **** Fit       0.007020
 **** Fit       0.008209
 **** Fit       0.009311
 **** Fit       0.010332
 **** Fit       0.011275
 **** Fit       0.012144
 **** Fit       0.012944
 **** Fit       0.013678
 **** Fit       0.014353
 **** Fit       0.014974
 **** Fit       0.015545
 **** Fit       0.016075
 **** Fit       0.016572
 **** Fit       0.017046
 **** Fit       0.017510
 **** Fit       0.005792
 **** Fit       0.007076
 **** Fit       0.008269
 **** Fit       0.009376
 **** Fit       0.010401
 **** Fit       0.011348
 **** Fit       0.012220
 **** Fit       0.013024
 **** Fit       0.013762
 **** Fit       0.014441
 **** Fit       0.015065
 **** Fit       0.015641
 **** Fit       0.016177
 **** Fit       0.016680
 **** Fit       0.017163
 **** Fit       0.017639
 **** Fit       0.005790
 **** Fit       0.007074
 **** Fit       0.008268
 **** Fit       0.009375
 **** Fit       0.010400
 **** Fit       0.011346
 **** Fit       0.012219
 **** Fit       0.013022
 **** Fit       0.013761
 **** Fit       0.014440
 **** Fit       0.015064
 **** Fit       0.015640
 **** Fit       0.016176
 **** Fit       0.016680
 **** Fit       0.017162
 **** Fit       0.017638
 **** Fit       0.005736
 **** Fit       0.007015
 **** Fit       0.008204
 **** Fit       0.009307
 **** Fit       0.010328
 **** Fit       0.011270
 **** Fit       0.012140
 **** Fit       0.012940
 **** Fit       0.013675
 **** Fit       0.014350
 **** Fit       0.014970
 **** Fit       0.015542
 **** Fit       0.016072
 **** Fit       0.016569
 **** Fit       0.017043
 **** Fit       0.017508
 **** Fit       0.005647
 **** Fit       0.006931
 **** Fit       0.008123
 **** Fit       0.009227
 **** Fit       0.010249
 **** Fit       0.011191
 **** Fit       0.012058
 **** Fit       0.012855
 **** Fit       0.013585
 **** Fit       0.014255
 **** Fit       0.014868
 **** Fit       0.015431
 **** Fit       0.015950
 **** Fit       0.016435
 **** Fit       0.016895
 **** Fit       0.017342
 **** Fit       0.005525
 **** Fit       0.006822
 **** Fit       0.008025
 **** Fit       0.009138
 **** Fit       0.010165
 **** Fit       0.011109
 **** Fit       0.011975
 **** Fit       0.012769
 **** Fit       0.013493
 **** Fit       0.014153
 **** Fit       0.014754
 **** Fit       0.015303
 **** Fit       0.015805
 **** Fit       0.016270
 **** Fit       0.016706
 **** Fit       0.005352
 **** Fit       0.006659
 **** Fit       0.007868
 **** Fit       0.008984
 **** Fit       0.010011
 **** Fit       0.010953
 **** Fit       0.011814
 **** Fit       0.012599
 **** Fit       0.013311
 **** Fit       0.013957
 **** Fit       0.014540
 **** Fit       0.015066
 **** Fit       0.015543
 **** Fit       0.015976
 **** Fit       0.016374
 **** Fit       0.005130
 **** Fit       0.006439
 **** Fit       0.007649
 **** Fit       0.008763
 **** Fit       0.009785
 **** Fit       0.010720
 **** Fit       0.011571
 **** Fit       0.012342
 **** Fit       0.013037
 **** Fit       0.013662
 **** Fit       0.014219
 **** Fit       0.014715
 **** Fit       0.015155
 **** Fit       0.015543
 **** Fit       0.015886
 **** Fit       0.006201
 **** Fit       0.007419
 **** Fit       0.008537
 **** Fit       0.009558
 **** Fit       0.010486
 **** Fit       0.011325
 **** Fit       0.012078
 **** Fit       0.012750
 **** Fit       0.013345
 **** Fit       0.013866
 **** Fit       0.014316
 **** Fit       0.014701
 **** Fit       0.015021
 **** Fit       0.005909
 **** Fit       0.007129
 **** Fit       0.008244
 **** Fit       0.009257
 **** Fit       0.010171
 **** Fit       0.010991
 **** Fit       0.011718
 **** Fit       0.012357
 **** Fit       0.012911
 **** Fit       0.013381
 **** Fit       0.013770
 **** Fit       0.014078
 **** Fit       0.014304
 **** Fit       0.005605
 **** Fit       0.006835
 **** Fit       0.007951
 **** Fit       0.008957
 **** Fit       0.009855
 **** Fit       0.010648
 **** Fit       0.011338
 **** Fit       0.011929
 **** Fit       0.012420
 **** Fit       0.012813
 **** Fit       0.013105
 **** Fit       0.013293
 **** Fit       0.005251
 **** Fit       0.006482
 **** Fit       0.007591
 **** Fit       0.008579
 **** Fit       0.009448
 **** Fit       0.010201
 **** Fit       0.010837
 **** Fit       0.011358
 **** Fit       0.011763
 **** Fit       0.012046
 **** Fit       0.012202
 **** Fit       0.012218
 **** Fit       0.006135
 **** Fit       0.007237
 **** Fit       0.008201
 **** Fit       0.009028
 **** Fit       0.009718
 **** Fit       0.010269
 **** Fit       0.010679
 **** Fit       0.010940
 **** Fit       0.011043
 **** Fit       0.010968
 **** Fit       0.005729
 **** Fit       0.006808
 **** Fit       0.007727
 **** Fit       0.008485
 **** Fit       0.009077
 **** Fit       0.009499
 **** Fit       0.009741
 **** Fit       0.009788
 **** Fit       0.006289
 **** Fit       0.007132
 **** Fit       0.007780
 **** Fit       0.008224
 **** Fit       0.008451
 **** Fit       0.008442
 **** Fit       0.005652
 **** Fit       0.006374
 **** Fit       0.006853
 **** Fit       0.007072
 **** Fit       0.007007
 -----------------------------------------------------------------
 Leave Link  602 at Wed Mar 27 14:16:51 2024, MaxMem=   104857600 cpu:               1.1 elap:               1.1
 (Enter /apps/versions/2023.01/rocky8/x86_64/generic/software/Gaussian/16.B.01/g16/l9999.exe)

 Test job not archived.
 1\1\GINC-LOGIN1\SP\RHF\6-31G(d)\C6H6O1\P315462\27-Mar-2024\0\\#P HF/6-
 31G* SCF=(Tight,MaxCycle=900) Geom=AllCheck Guess=Read Pop=MK IOp(6/33
 =2,6/41=10,6/42=17)\\Tyrosine\\0,1\C,0,-2.6699865598,4.9982935117,-2.6
 917654759\H,0,-3.3379711198,5.6673725036,-3.2260620813\C,0,-3.17968443
 53,4.0733468033,-1.7804026798\H,0,-4.2499025249,4.0168945553,-1.599487
 5867\C,0,-1.2901084829,5.0545471649,-2.9098204809\H,0,-0.8810129553,5.
 770958784,-3.6174820628\C,0,-2.3244517097,3.2114976258,-1.0915290699\H
 ,0,-2.7262818584,2.4908965475,-0.3808369714\C,0,-0.4258008809,4.200408
 148,-2.2292152613\H,0,0.6474276753,4.2331355194,-2.3887729291\C,0,-0.9
 45474379,3.2755566922,-1.3166966034\O,0,-0.0543641322,2.4589290488,-0.
 673628411\H,0,-0.542388637,1.8711630955,-0.0763003867\\Version=ES64L-G
 16RevB.01\State=1-A\HF=-305.556004\RMSD=6.374e-09\Dipole=-0.531025,-0.
 1525855,0.2030621\Quadrupole=-0.990733,0.7443391,0.2463939,1.1684031,-
 1.484873,-4.8462641\PG=C01 [X(C6H6O1)]\\@


 I KNOW YOU BELIEVE YOU UNDERSTAND WHAT YOU THINK I SAID,
 BUT I AM NOT SURE YOU REALIZE THAT WHAT YOU HEARD IS NOT WHAT I MEANT.
 Job cpu time:       0 days  0 hours  0 minutes  3.7 seconds.
 Elapsed time:       0 days  0 hours  0 minutes  4.0 seconds.
 File lengths (MBytes):  RWF=     22 Int=      0 D2E=      0 Chk=      3 Scr=      2
 Normal termination of Gaussian 16 at Wed Mar 27 14:16:51 2024.
