 Entering Gaussian System, Link 0=g16
 Input=RRD.com
 Output=RRD.log
 Initial command:
 /usr/local/gaussian/gaussian16.c01-legacy/g16/l1.exe "/scratch/master9/Gau-3201533.inp" -scrdir="/scratch/master9/"
 Entering Link 1 = /usr/local/gaussian/gaussian16.c01-legacy/g16/l1.exe PID=   3201534.
  
 Copyright (c) 1988-2019, Gaussian, Inc.  All Rights Reserved.
  
 This is part of the Gaussian(R) 16 program.  It is based on
 the Gaussian(R) 09 system (copyright 2009, Gaussian, Inc.),
 the Gaussian(R) 03 system (copyright 2003, Gaussian, Inc.),
 the Gaussian(R) 98 system (copyright 1998, Gaussian, Inc.),
 the Gaussian(R) 94 system (copyright 1995, Gaussian, Inc.),
 the Gaussian 92(TM) system (copyright 1992, Gaussian, Inc.),
 the Gaussian 90(TM) system (copyright 1990, Gaussian, Inc.),
 the Gaussian 88(TM) system (copyright 1988, Gaussian, Inc.),
 the Gaussian 86(TM) system (copyright 1986, Carnegie Mellon
 University), and the Gaussian 82(TM) system (copyright 1983,
 Carnegie Mellon University). Gaussian is a federally registered
 trademark of Gaussian, Inc.
  
 This software contains proprietary and confidential information,
 including trade secrets, belonging to Gaussian, Inc.
  
 This software is provided under written license and may be
 used, copied, transmitted, or stored only in accord with that
 written license.
  
 The following legend is applicable only to US Government
 contracts under FAR:
  
                    RESTRICTED RIGHTS LEGEND
  
 Use, reproduction and disclosure by the US Government is
 subject to restrictions as set forth in subparagraphs (a)
 and (c) of the Commercial Computer Software - Restricted
 Rights clause in FAR 52.227-19.
  
 Gaussian, Inc.
 340 Quinnipiac St., Bldg. 40, Wallingford CT 06492
  
  
 ---------------------------------------------------------------
 Warning -- This program may not be used in any manner that
 competes with the business of Gaussian, Inc. or will provide
 assistance to any competitor of Gaussian, Inc.  The licensee
 of this program is prohibited from giving any competitor of
 Gaussian, Inc. access to this program.  By using this program,
 the user acknowledges that Gaussian, Inc. is engaged in the
 business of creating and licensing software in the field of
 computational chemistry and represents and warrants to the
 licensee that it is not a competitor of Gaussian, Inc. and that
 it will not use this program in any manner prohibited above.
 ---------------------------------------------------------------
  

 Cite this work as:
 Gaussian 16, Revision C.01,
 M. J. Frisch, G. W. Trucks, H. B. Schlegel, G. E. Scuseria, 
 M. A. Robb, J. R. Cheeseman, G. Scalmani, V. Barone, 
 G. A. Petersson, H. Nakatsuji, X. Li, M. Caricato, A. V. Marenich, 
 J. Bloino, B. G. Janesko, R. Gomperts, B. Mennucci, H. P. Hratchian, 
 J. V. Ortiz, A. F. Izmaylov, J. L. Sonnenberg, D. Williams-Young, 
 F. Ding, F. Lipparini, F. Egidi, J. Goings, B. Peng, A. Petrone, 
 T. Henderson, D. Ranasinghe, V. G. Zakrzewski, J. Gao, N. Rega, 
 G. Zheng, W. Liang, M. Hada, M. Ehara, K. Toyota, R. Fukuda, 
 J. Hasegawa, M. Ishida, T. Nakajima, Y. Honda, O. Kitao, H. Nakai, 
 T. Vreven, K. Throssell, J. A. Montgomery, Jr., J. E. Peralta, 
 F. Ogliaro, M. J. Bearpark, J. J. Heyd, E. N. Brothers, K. N. Kudin, 
 V. N. Staroverov, T. A. Keith, R. Kobayashi, J. Normand, 
 K. Raghavachari, A. P. Rendell, J. C. Burant, S. S. Iyengar, 
 J. Tomasi, M. Cossi, J. M. Millam, M. Klene, C. Adamo, R. Cammi, 
 J. W. Ochterski, R. L. Martin, K. Morokuma, O. Farkas, 
 J. B. Foresman, and D. J. Fox, Gaussian, Inc., Wallingford CT, 2019.
 
 ******************************************
 Gaussian 16:  EM64L-G16RevC.01  3-Jul-2019
                 5-Feb-2024 
 ******************************************
 %nproc=1
 Will use up to    1 processors via shared memory.
 %chk=ASP
 %Mem=1GB
 ------------------------
 # HF/6-31G* scrf=smd opt
 ------------------------
 1/18=20,19=15,26=6,38=1/1,3;
 2/9=110,12=2,17=6,18=5,40=1/2;
 3/5=1,6=6,7=1,11=9,25=1,30=1,70=32201,71=1/1,2,3;
 4//1;
 5/5=2,38=5/2;
 6/7=2,8=2,9=2,10=2,28=1/1;
 7//1,2,3,16;
 1/18=20,19=15,26=6/3(2);
 2/9=110/2;
 99//99;
 2/9=110/2;
 3/5=1,6=6,7=1,11=9,25=1,30=1,70=32205,71=1/1,2,3;
 4/5=5,16=3,69=1/1;
 5/5=2,38=5/2;
 7//1,2,3,16;
 1/18=20,19=15,26=6/3(-5);
 2/9=110/2;
 6/7=2,8=2,9=2,10=2,19=2,28=1/1;
 99/9=1/99;
 -------
 RR Diol
 -------
 Symbolic Z-matrix:
 Charge =  0 Multiplicity = 1
 O                    -0.26056  -1.91332  -1.82759 
 H                    -1.04661  -1.70062  -2.36022 
 C                     0.62909  -1.69014   0.45732 
 H                     1.2346   -2.56458   0.18398 
 C                     1.52759  -0.47079   0.33055 
 C                     1.36392   0.65559   1.15299 
 C                     2.19714   1.76678   1.01297 
 C                     3.19882   1.77048   0.04478 
 C                     3.36423   0.66648  -0.7885 
 C                     2.53281  -0.44603  -0.64862 
 C                    -0.62912  -1.6902   -0.45717 
 C                    -1.52765  -0.47085  -0.33051 
 C                    -1.36405   0.65543  -1.15309 
 C                    -2.19729   1.76662  -1.01316 
 C                    -3.19892   1.7704   -0.04492 
 C                    -3.36425   0.6665    0.7885 
 C                    -2.53281  -0.44601   0.64871 
 O                     0.26054  -1.91314   1.82776 
 H                     1.04657  -1.70034   2.36037 
 H                     0.57005   0.68141   1.89768 
 H                     2.0571    2.63283   1.65448 
 H                     3.84441   2.6375   -0.06637 
 H                     4.13727   0.67259  -1.55247 
 H                     2.66505  -1.29446  -1.31786 
 H                    -1.23461  -2.56463  -0.18376 
 H                    -0.57022   0.68118  -1.89783 
 H                    -2.05731   2.63259  -1.65478 
 H                    -3.84453   2.63742   0.06617 
 H                    -4.13725   0.67268   1.55252 
 H                    -2.66499  -1.29436   1.31806 
 

 GradGradGradGradGradGradGradGradGradGradGradGradGradGradGradGradGradGrad
 Berny optimization.
 Initialization pass.
                           ----------------------------
                           !    Initial Parameters    !
                           ! (Angstroms and Degrees)  !
 --------------------------                            --------------------------
 ! Name  Definition              Value          Derivative Info.                !
 --------------------------------------------------------------------------------
 ! R1    R(1,2)                  0.973          estimate D2E/DX2                !
 ! R2    R(1,11)                 1.4365         estimate D2E/DX2                !
 ! R3    R(3,4)                  1.0982         estimate D2E/DX2                !
 ! R4    R(3,5)                  1.5199         estimate D2E/DX2                !
 ! R5    R(3,11)                 1.5554         estimate D2E/DX2                !
 ! R6    R(3,18)                 1.4365         estimate D2E/DX2                !
 ! R7    R(5,6)                  1.4043         estimate D2E/DX2                !
 ! R8    R(5,10)                 1.4035         estimate D2E/DX2                !
 ! R9    R(6,7)                  1.3959         estimate D2E/DX2                !
 ! R10   R(6,20)                 1.0888         estimate D2E/DX2                !
 ! R11   R(7,8)                  1.3931         estimate D2E/DX2                !
 ! R12   R(7,21)                 1.0868         estimate D2E/DX2                !
 ! R13   R(8,9)                  1.393          estimate D2E/DX2                !
 ! R14   R(8,22)                 1.0867         estimate D2E/DX2                !
 ! R15   R(9,10)                 1.3959         estimate D2E/DX2                !
 ! R16   R(9,23)                 1.0869         estimate D2E/DX2                !
 ! R17   R(10,24)                1.0887         estimate D2E/DX2                !
 ! R18   R(11,12)                1.5199         estimate D2E/DX2                !
 ! R19   R(11,25)                1.0982         estimate D2E/DX2                !
 ! R20   R(12,13)                1.4042         estimate D2E/DX2                !
 ! R21   R(12,17)                1.4035         estimate D2E/DX2                !
 ! R22   R(13,14)                1.3959         estimate D2E/DX2                !
 ! R23   R(13,26)                1.0888         estimate D2E/DX2                !
 ! R24   R(14,15)                1.3931         estimate D2E/DX2                !
 ! R25   R(14,27)                1.0868         estimate D2E/DX2                !
 ! R26   R(15,16)                1.393          estimate D2E/DX2                !
 ! R27   R(15,28)                1.0867         estimate D2E/DX2                !
 ! R28   R(16,17)                1.3959         estimate D2E/DX2                !
 ! R29   R(16,29)                1.0869         estimate D2E/DX2                !
 ! R30   R(17,30)                1.0887         estimate D2E/DX2                !
 ! R31   R(18,19)                0.973          estimate D2E/DX2                !
 ! A1    A(2,1,11)             106.3188         estimate D2E/DX2                !
 ! A2    A(4,3,5)              106.9832         estimate D2E/DX2                !
 ! A3    A(4,3,11)             107.4363         estimate D2E/DX2                !
 ! A4    A(4,3,18)             104.7913         estimate D2E/DX2                !
 ! A5    A(5,3,11)             115.4154         estimate D2E/DX2                !
 ! A6    A(5,3,18)             110.8401         estimate D2E/DX2                !
 ! A7    A(11,3,18)            110.6919         estimate D2E/DX2                !
 ! A8    A(3,5,6)              121.7184         estimate D2E/DX2                !
 ! A9    A(3,5,10)             119.7178         estimate D2E/DX2                !
 ! A10   A(6,5,10)             118.5502         estimate D2E/DX2                !
 ! A11   A(5,6,7)              120.6765         estimate D2E/DX2                !
 ! A12   A(5,6,20)             120.3039         estimate D2E/DX2                !
 ! A13   A(7,6,20)             119.0088         estimate D2E/DX2                !
 ! A14   A(6,7,8)              120.0666         estimate D2E/DX2                !
 ! A15   A(6,7,21)             119.8812         estimate D2E/DX2                !
 ! A16   A(8,7,21)             120.0498         estimate D2E/DX2                !
 ! A17   A(7,8,9)              119.9336         estimate D2E/DX2                !
 ! A18   A(7,8,22)             120.0247         estimate D2E/DX2                !
 ! A19   A(9,8,22)             120.0393         estimate D2E/DX2                !
 ! A20   A(8,9,10)             120.0636         estimate D2E/DX2                !
 ! A21   A(8,9,23)             120.0308         estimate D2E/DX2                !
 ! A22   A(10,9,23)            119.9046         estimate D2E/DX2                !
 ! A23   A(5,10,9)             120.7014         estimate D2E/DX2                !
 ! A24   A(5,10,24)            120.1404         estimate D2E/DX2                !
 ! A25   A(9,10,24)            119.1544         estimate D2E/DX2                !
 ! A26   A(1,11,3)             110.6917         estimate D2E/DX2                !
 ! A27   A(1,11,12)            110.8404         estimate D2E/DX2                !
 ! A28   A(1,11,25)            104.7908         estimate D2E/DX2                !
 ! A29   A(3,11,12)            115.4151         estimate D2E/DX2                !
 ! A30   A(3,11,25)            107.4369         estimate D2E/DX2                !
 ! A31   A(12,11,25)           106.9834         estimate D2E/DX2                !
 ! A32   A(11,12,13)           121.7187         estimate D2E/DX2                !
 ! A33   A(11,12,17)           119.7169         estimate D2E/DX2                !
 ! A34   A(13,12,17)           118.5508         estimate D2E/DX2                !
 ! A35   A(12,13,14)           120.6765         estimate D2E/DX2                !
 ! A36   A(12,13,26)           120.304          estimate D2E/DX2                !
 ! A37   A(14,13,26)           119.0086         estimate D2E/DX2                !
 ! A38   A(13,14,15)           120.0661         estimate D2E/DX2                !
 ! A39   A(13,14,27)           119.8814         estimate D2E/DX2                !
 ! A40   A(15,14,27)           120.0501         estimate D2E/DX2                !
 ! A41   A(14,15,16)           119.9338         estimate D2E/DX2                !
 ! A42   A(14,15,28)           120.0247         estimate D2E/DX2                !
 ! A43   A(16,15,28)           120.039          estimate D2E/DX2                !
 ! A44   A(15,16,17)           120.0639         estimate D2E/DX2                !
 ! A45   A(15,16,29)           120.0309         estimate D2E/DX2                !
 ! A46   A(17,16,29)           119.9042         estimate D2E/DX2                !
 ! A47   A(12,17,16)           120.7008         estimate D2E/DX2                !
 ! A48   A(12,17,30)           120.1409         estimate D2E/DX2                !
 ! A49   A(16,17,30)           119.1546         estimate D2E/DX2                !
 ! A50   A(3,18,19)            106.319          estimate D2E/DX2                !
 ! D1    D(2,1,11,3)          -167.3448         estimate D2E/DX2                !
 ! D2    D(2,1,11,12)          -37.9499         estimate D2E/DX2                !
 ! D3    D(2,1,11,25)           77.1227         estimate D2E/DX2                !
 ! D4    D(4,3,5,6)           -148.7043         estimate D2E/DX2                !
 ! D5    D(4,3,5,10)            32.6565         estimate D2E/DX2                !
 ! D6    D(11,3,5,6)            91.8236         estimate D2E/DX2                !
 ! D7    D(11,3,5,10)          -86.8156         estimate D2E/DX2                !
 ! D8    D(18,3,5,6)           -35.0082         estimate D2E/DX2                !
 ! D9    D(18,3,5,10)          146.3526         estimate D2E/DX2                !
 ! D10   D(4,3,11,1)           -47.0207         estimate D2E/DX2                !
 ! D11   D(4,3,11,12)         -173.9273         estimate D2E/DX2                !
 ! D12   D(4,3,11,25)           66.8497         estimate D2E/DX2                !
 ! D13   D(5,3,11,1)            72.2018         estimate D2E/DX2                !
 ! D14   D(5,3,11,12)          -54.7048         estimate D2E/DX2                !
 ! D15   D(5,3,11,25)         -173.9278         estimate D2E/DX2                !
 ! D16   D(18,3,11,1)         -160.8914         estimate D2E/DX2                !
 ! D17   D(18,3,11,12)          72.202          estimate D2E/DX2                !
 ! D18   D(18,3,11,25)         -47.021          estimate D2E/DX2                !
 ! D19   D(4,3,18,19)           77.125          estimate D2E/DX2                !
 ! D20   D(5,3,18,19)          -37.9475         estimate D2E/DX2                !
 ! D21   D(11,3,18,19)        -167.3428         estimate D2E/DX2                !
 ! D22   D(3,5,6,7)           -179.6541         estimate D2E/DX2                !
 ! D23   D(3,5,6,20)            -0.8643         estimate D2E/DX2                !
 ! D24   D(10,5,6,7)            -0.9995         estimate D2E/DX2                !
 ! D25   D(10,5,6,20)          177.7903         estimate D2E/DX2                !
 ! D26   D(3,5,10,9)           179.6064         estimate D2E/DX2                !
 ! D27   D(3,5,10,24)            0.3159         estimate D2E/DX2                !
 ! D28   D(6,5,10,9)             0.9242         estimate D2E/DX2                !
 ! D29   D(6,5,10,24)         -178.3663         estimate D2E/DX2                !
 ! D30   D(5,6,7,8)              0.389          estimate D2E/DX2                !
 ! D31   D(5,6,7,21)           179.8212         estimate D2E/DX2                !
 ! D32   D(20,6,7,8)          -178.4163         estimate D2E/DX2                !
 ! D33   D(20,6,7,21)            1.0159         estimate D2E/DX2                !
 ! D34   D(6,7,8,9)              0.318          estimate D2E/DX2                !
 ! D35   D(6,7,8,22)           179.7471         estimate D2E/DX2                !
 ! D36   D(21,7,8,9)          -179.1132         estimate D2E/DX2                !
 ! D37   D(21,7,8,22)            0.3159         estimate D2E/DX2                !
 ! D38   D(7,8,9,10)            -0.3932         estimate D2E/DX2                !
 ! D39   D(7,8,9,23)           179.2484         estimate D2E/DX2                !
 ! D40   D(22,8,9,10)         -179.8222         estimate D2E/DX2                !
 ! D41   D(22,8,9,23)           -0.1806         estimate D2E/DX2                !
 ! D42   D(8,9,10,5)            -0.2379         estimate D2E/DX2                !
 ! D43   D(8,9,10,24)          179.0595         estimate D2E/DX2                !
 ! D44   D(23,9,10,5)         -179.8799         estimate D2E/DX2                !
 ! D45   D(23,9,10,24)          -0.5826         estimate D2E/DX2                !
 ! D46   D(1,11,12,13)         -35.0049         estimate D2E/DX2                !
 ! D47   D(1,11,12,17)         146.3563         estimate D2E/DX2                !
 ! D48   D(3,11,12,13)          91.8266         estimate D2E/DX2                !
 ! D49   D(3,11,12,17)         -86.8122         estimate D2E/DX2                !
 ! D50   D(25,11,12,13)       -148.7007         estimate D2E/DX2                !
 ! D51   D(25,11,12,17)         32.6606         estimate D2E/DX2                !
 ! D52   D(11,12,13,14)       -179.6537         estimate D2E/DX2                !
 ! D53   D(11,12,13,26)         -0.8636         estimate D2E/DX2                !
 ! D54   D(17,12,13,14)         -0.9995         estimate D2E/DX2                !
 ! D55   D(17,12,13,26)        177.7905         estimate D2E/DX2                !
 ! D56   D(11,12,17,16)        179.606          estimate D2E/DX2                !
 ! D57   D(11,12,17,30)          0.3158         estimate D2E/DX2                !
 ! D58   D(13,12,17,16)          0.9242         estimate D2E/DX2                !
 ! D59   D(13,12,17,30)       -178.366          estimate D2E/DX2                !
 ! D60   D(12,13,14,15)          0.3886         estimate D2E/DX2                !
 ! D61   D(12,13,14,27)        179.8215         estimate D2E/DX2                !
 ! D62   D(26,13,14,15)       -178.4169         estimate D2E/DX2                !
 ! D63   D(26,13,14,27)          1.016          estimate D2E/DX2                !
 ! D64   D(13,14,15,16)          0.3187         estimate D2E/DX2                !
 ! D65   D(13,14,15,28)        179.7469         estimate D2E/DX2                !
 ! D66   D(27,14,15,16)       -179.1132         estimate D2E/DX2                !
 ! D67   D(27,14,15,28)          0.315          estimate D2E/DX2                !
 ! D68   D(14,15,16,17)         -0.3939         estimate D2E/DX2                !
 ! D69   D(14,15,16,29)        179.2478         estimate D2E/DX2                !
 ! D70   D(28,15,16,17)       -179.822          estimate D2E/DX2                !
 ! D71   D(28,15,16,29)         -0.1803         estimate D2E/DX2                !
 ! D72   D(15,16,17,12)         -0.2375         estimate D2E/DX2                !
 ! D73   D(15,16,17,30)        179.0596         estimate D2E/DX2                !
 ! D74   D(29,16,17,12)       -179.8797         estimate D2E/DX2                !
 ! D75   D(29,16,17,30)         -0.5826         estimate D2E/DX2                !
 --------------------------------------------------------------------------------
 Trust Radius=3.00D-01 FncErr=5.00D-06 GrdErr=5.00D-06 EigMax=2.50D+02 EigMin=1.00D-04
 Number of steps in this run=    166 maximum allowed number of steps=    180.
 GradGradGradGradGradGradGradGradGradGradGradGradGradGradGradGradGradGrad

                          Input orientation:                          
 ---------------------------------------------------------------------
 Center     Atomic      Atomic             Coordinates (Angstroms)
 Number     Number       Type             X           Y           Z
 ---------------------------------------------------------------------
      1          8           0       -0.260560   -1.913320   -1.827590
      2          1           0       -1.046610   -1.700620   -2.360220
      3          6           0        0.629090   -1.690140    0.457320
      4          1           0        1.234600   -2.564580    0.183980
      5          6           0        1.527590   -0.470790    0.330550
      6          6           0        1.363920    0.655590    1.152990
      7          6           0        2.197140    1.766780    1.012970
      8          6           0        3.198820    1.770480    0.044780
      9          6           0        3.364230    0.666480   -0.788500
     10          6           0        2.532810   -0.446030   -0.648620
     11          6           0       -0.629120   -1.690200   -0.457170
     12          6           0       -1.527650   -0.470850   -0.330510
     13          6           0       -1.364050    0.655430   -1.153090
     14          6           0       -2.197290    1.766620   -1.013160
     15          6           0       -3.198920    1.770400   -0.044920
     16          6           0       -3.364250    0.666500    0.788500
     17          6           0       -2.532810   -0.446010    0.648710
     18          8           0        0.260540   -1.913140    1.827760
     19          1           0        1.046570   -1.700340    2.360370
     20          1           0        0.570050    0.681410    1.897680
     21          1           0        2.057100    2.632830    1.654480
     22          1           0        3.844410    2.637500   -0.066370
     23          1           0        4.137270    0.672590   -1.552470
     24          1           0        2.665050   -1.294460   -1.317860
     25          1           0       -1.234610   -2.564630   -0.183760
     26          1           0       -0.570220    0.681180   -1.897830
     27          1           0       -2.057310    2.632590   -1.654780
     28          1           0       -3.844530    2.637420    0.066170
     29          1           0       -4.137250    0.672680    1.552520
     30          1           0       -2.664990   -1.294360    1.318060
 ---------------------------------------------------------------------
                    Distance matrix (angstroms):
                    1          2          3          4          5
     1  O    0.000000
     2  H    0.973042   0.000000
     3  C    2.462133   3.278203   0.000000
     4  H    2.589606   3.524670   1.098181   0.000000
     5  C    3.152133   3.921636   1.519930   2.119265   0.000000
     6  C    4.257005   4.868781   2.554678   3.365293   1.404253
     7  C    5.258537   5.824362   3.836382   4.513800   2.433252
     8  C    5.389199   5.988008   4.330080   4.761332   2.810332
     9  C    4.568827   5.246806   3.819256   3.990086   2.432879
    10  C    3.368357   4.161228   2.528846   2.620463   1.403515
    11  C    1.436548   1.948334   1.555437   2.156169   2.599781
    12  C    2.434643   2.421457   2.599783   3.504059   3.125939
    13  C    2.875955   2.666253   3.473863   4.348471   3.439643
    14  C    4.237473   3.893634   4.701056   5.654229   4.548218
    15  C    5.038022   4.694788   5.184712   6.204881   5.244407
    16  C    4.809604   4.570465   4.648677   5.652853   5.043138
    17  C    3.667176   3.582806   3.403249   4.347147   4.072921
    18  O    3.692307   4.392378   1.436546   2.018707   2.434631
    19  H    4.392375   5.163852   1.948331   2.349242   2.421434
    20  H    4.615211   5.139783   2.775315   3.730261   2.168028
    21  H    6.177689   6.673052   4.707491   5.463694   3.415498
    22  H    6.376726   6.928428   5.416734   5.825412   3.897007
    23  H    5.109161   5.758229   4.682849   4.681882   3.415188
    24  H    3.033481   3.876584   2.730011   2.432060   2.165526
    25  H    2.018701   2.349220   2.156176   2.496444   3.504059
    26  H    2.613858   2.472594   3.550808   4.257495   3.270095
    27  H    4.891163   4.505094   5.510327   6.420926   5.140429
    28  H    6.094293   5.703886   6.236509   7.271330   6.212128
    29  H    5.756845   5.522150   5.431425   6.419465   5.906873
    30  H    4.007432   4.039052   3.427605   4.255161   4.385336
                    6          7          8          9         10
     6  C    0.000000
     7  C    1.395924   0.000000
     8  C    2.416189   1.393115   0.000000
     9  C    2.787605   2.412064   1.393030   0.000000
    10  C    2.413642   2.787487   2.416048   1.395888   0.000000
    11  C    3.473839   4.701039   5.184726   4.648716   3.403294
    12  C    3.439595   4.548185   5.244418   5.043190   4.072977
    13  C    3.572090   4.313814   4.847475   4.742329   4.080836
    14  C    4.313793   4.839031   5.498841   5.673736   5.234745
    15  C    4.847401   5.498782   6.398369   6.696752   6.174929
    16  C    4.742211   5.673629   6.696699   6.910816   6.170766
    17  C    4.080726   5.234649   6.174880   6.170761   5.229108
    18  O    2.875958   4.237465   5.038012   4.809589   3.667162
    19  H    2.666249   3.893613   4.694755   4.570423   3.582768
    20  H    1.088788   2.146663   3.395548   3.875981   3.406933
    21  H    2.154407   1.086825   2.153673   3.397539   3.874267
    22  H    3.401123   2.153283   1.086676   2.153361   3.401098
    23  H    3.874438   3.397475   2.153429   1.086866   2.154657
    24  H    3.405985   3.875938   3.396403   2.148106   1.088670
    25  H    4.348457   5.654218   6.204894   5.652885   4.347185
    26  H    3.612348   4.160477   4.377896   4.087875   3.529862
    27  H    4.847362   5.095769   5.590943   5.831734   5.617781
    28  H    5.677744   6.177072   7.096536   7.522053   7.119625
    29  H    5.515686   6.450788   7.569436   7.858283   7.112400
    30  H    4.479025   5.753605   6.737860   6.680867   5.621799
                   11         12         13         14         15
    11  C    0.000000
    12  C    1.519939   0.000000
    13  C    2.554683   1.404247   0.000000
    14  C    3.836390   2.433249   1.395927   0.000000
    15  C    4.330078   2.810321   2.416184   1.393114   0.000000
    16  C    3.819249   2.432868   2.787597   2.412061   1.393025
    17  C    2.528837   1.403508   2.413639   2.787493   2.416050
    18  O    2.462134   3.152135   4.257031   5.258554   5.389180
    19  H    3.278196   3.921618   4.868793   5.824358   5.987958
    20  H    3.550755   3.269997   3.612287   4.160390   4.377754
    21  H    5.510302   5.140374   4.847353   5.095729   5.590840
    22  H    6.236520   6.212136   5.677818   6.177134   7.096536
    23  H    5.431476   5.906942   5.515825   6.450923   7.569516
    24  H    3.427675   4.385422   4.479159   5.753729   6.737944
    25  H    1.098180   2.119274   3.365285   4.513799   4.761331
    26  H    2.775322   2.168026   1.088791   2.146667   3.395547
    27  H    4.707495   3.415490   2.154406   1.086819   2.153670
    28  H    5.416737   3.897003   3.401126   2.153287   1.086682
    29  H    4.682844   3.415183   3.874437   3.397479   2.153431
    30  H    2.730000   2.165524   3.405981   3.875942   3.396402
                   16         17         18         19         20
    16  C    0.000000
    17  C    1.395891   0.000000
    18  O    4.568775   3.368298   0.000000
    19  H    5.246717   4.161140   0.973037   0.000000
    20  H    4.087691   3.529694   2.613881   2.472627   0.000000
    21  H    5.831587   5.617660   4.891165   4.505088   2.465462
    22  H    7.521996   7.119572   6.094274   5.703844   4.290130
    23  H    7.858306   7.112414   5.756821   5.522096   4.962728
    24  H    6.680911   5.621834   4.007413   4.039009   4.316571
    25  H    3.990095   2.620473   2.589619   3.524681   4.257460
    26  H    3.875976   3.406932   4.615266   5.139836   3.963094
    27  H    3.397531   3.874267   6.177716   6.673064   4.830124
    28  H    2.153359   3.401103   6.376707   6.928375   5.164196
    29  H    1.086873   2.154662   5.109088   5.758110   4.719945
    30  H    2.148109   1.088668   3.033382   3.876456   3.834724
                   21         22         23         24         25
    21  H    0.000000
    22  H    2.481093   0.000000
    23  H    4.295832   2.480954   0.000000
    24  H    4.962662   4.291553   2.468149   0.000000
    25  H    6.420909   7.271340   6.419506   4.255216   0.000000
    26  H    4.830182   5.164338   4.720149   3.834904   3.730246
    27  H    5.280111   6.111740   6.498068   6.151091   5.463683
    28  H    6.111627   7.690082   8.377928   7.729803   5.825416
    29  H    6.497889   8.377841   8.837909   7.640681   4.681897
    30  H    6.150946   7.729713   7.640653   5.946209   2.432085
                   26         27         28         29         30
    26  H    0.000000
    27  H    2.465464   0.000000
    28  H    4.290137   2.481098   0.000000
    29  H    4.962730   4.295832   2.480952   0.000000
    30  H    4.316569   4.962659   4.291554   2.468151   0.000000
 Stoichiometry    C14H14O2
 Framework group  C1[X(C14H14O2)]
 Deg. of freedom    84
 Full point group                 C1      NOp   1
 Largest Abelian subgroup         C1      NOp   1
 Largest concise Abelian subgroup C1      NOp   1
                         Standard orientation:                         
 ---------------------------------------------------------------------
 Center     Atomic      Atomic             Coordinates (Angstroms)
 Number     Number       Type             X           Y           Z
 ---------------------------------------------------------------------
      1          8           0        0.291002   -1.900470    1.823063
      2          1           0        1.085829   -1.687744    2.342495
      3          6           0       -0.636651   -1.677382   -0.446693
      4          1           0       -1.237508   -2.551816   -0.163255
      5          6           0       -1.532920   -0.458034   -0.304994
      6          6           0       -1.383005    0.668317   -1.130092
      7          6           0       -2.213782    1.779505   -0.976230
      8          6           0       -3.199168    1.783234    0.008538
      9          6           0       -3.350642    0.679264    0.844503
     10          6           0       -2.521662   -0.433245    0.690812
     11          6           0        0.636643   -1.677398    0.446676
     12          6           0        1.532925   -0.458046    0.304996
     13          6           0        1.383063    0.668263    1.130149
     14          6           0        2.213843    1.779454    0.976294
     15          6           0        3.199178    1.783206   -0.008524
     16          6           0        3.350588    0.679276   -0.844546
     17          6           0        2.521606   -0.433235   -0.690861
     18          8           0       -0.291017   -1.900430   -1.823083
     19          1           0       -1.085826   -1.687656   -2.342512
     20          1           0       -0.601671    0.694115   -1.887926
     21          1           0       -2.084473    2.645533   -1.620020
     22          1           0       -3.842820    2.650253    0.130413
     23          1           0       -4.110827    0.685397    1.621265
     24          1           0       -2.642710   -1.281651    1.362196
     25          1           0        1.237494   -2.551834    0.163233
     26          1           0        0.601770    0.694035    1.888030
     27          1           0        2.084582    2.645447    1.620128
     28          1           0        3.842838    2.650227   -0.130403
     29          1           0        4.110732    0.685433   -1.621358
     30          1           0        2.642606   -1.281609   -1.362291
 ---------------------------------------------------------------------
 Rotational constants (GHZ):           0.7810043           0.4139051           0.3579150
 Standard basis: 6-31G(d) (6D, 7F)
 There are   268 symmetry adapted cartesian basis functions of A   symmetry.
 There are   268 symmetry adapted basis functions of A   symmetry.
   268 basis functions,   504 primitive gaussians,   268 cartesian basis functions
    57 alpha electrons       57 beta electrons
       nuclear repulsion energy      1057.5645032260 Hartrees.
 NAtoms=   30 NActive=   30 NUniq=   30 SFac= 1.00D+00 NAtFMM=   60 NAOKFM=F Big=F
 Integral buffers will be    131072 words long.
 Raffenetti 1 integral format.
 Two-electron integral symmetry is turned on.
 ------------------------------------------------------------------------------
 Polarizable Continuum Model (PCM)
 =================================
 Model                : PCM.
 Atomic radii         : SMD-Coulomb.
 Polarization charges : Total charges.
 Charge compensation  : None.
 Solution method      : On-the-fly selection.
 Cavity type          : VdW (van der Waals Surface) (Alpha=1.000).
 Cavity algorithm     : GePol (No added spheres)
                        Default sphere list used, NSphG=   30.
                        Lebedev-Laikov grids with approx.  5.0 points / Ang**2.
                        Smoothing algorithm: York/Karplus (Gamma=1.0000).
                        Polarization charges: spherical gaussians, with
                                              point-specific exponents (IZeta= 3).
                        Self-potential: point-specific (ISelfS= 7).
                        Self-field    : sphere-specific E.n sum rule (ISelfD= 2).
 1st derivatives      : Analytical E(r).r(x)/FMM algorithm (CHGder, D1EAlg=3).
                        Cavity 1st derivative terms included.
 Solvent              : Water, Eps=  78.355300 Eps(inf)=   1.777849
 ------------------------------------------------------------------------------
 ------------------------------------------------------------------------------
 Atomic radii for non-electrostatic terms: SMD-CDS.
 ------------------------------------------------------------------------------
 Nuclear repulsion after PCM non-electrostatic terms =     1057.5729982097 Hartrees.
 One-electron integrals computed using PRISM.
 NBasis=   268 RedAO= T EigKep=  4.54D-04  NBF=   268
 NBsUse=   268 1.00D-06 EigRej= -1.00D+00 NBFU=   268
 ExpMin= 1.61D-01 ExpMax= 5.48D+03 ExpMxC= 8.25D+02 IAcc=3 IRadAn=         5 AccDes= 0.00D+00
 Harris functional with IExCor=  205 and IRadAn=       5 diagonalized for initial guess.
 HarFok:  IExCor=  205 AccDes= 0.00D+00 IRadAn=         5 IDoV= 1 UseB2=F ITyADJ=14
 ICtDFT=  3500011 ScaDFX=  1.000000  1.000000  1.000000  1.000000
 FoFCou: FMM=F IPFlag=           0 FMFlag=      100000 FMFlg1=           0
         NFxFlg=           0 DoJE=T BraDBF=F KetDBF=T FulRan=T
         wScrn=  0.000000 ICntrl=       500 IOpCl=  0 I1Cent=   200000004 NGrid=           0
         NMat0=    1 NMatS0=      1 NMatT0=    0 NMatD0=    1 NMtDS0=    0 NMtDT0=    0
 Petite list used in FoFCou.
 Requested convergence on RMS density matrix=1.00D-08 within 128 cycles.
 Requested convergence on MAX density matrix=1.00D-06.
 Requested convergence on             energy=1.00D-06.
 No special actions if energy rises.
 Inv3:  Mode=1 IEnd=    14918700.
 Iteration    1 A*A^-1 deviation from unit magnitude is 7.22D-15 for    251.
 Iteration    1 A*A^-1 deviation from orthogonality  is 4.32D-15 for   2105    862.
 Iteration    1 A^-1*A deviation from unit magnitude is 7.33D-15 for    345.
 Iteration    1 A^-1*A deviation from orthogonality  is 4.26D-15 for    705    260.
 Error on total polarization charges =  0.04245
 SCF Done:  E(RHF) =  -688.030242729     A.U. after   13 cycles
            NFock= 13  Conv=0.47D-08     -V/T= 2.0023
 SMD-CDS (non-electrostatic) energy       (kcal/mol) =       5.33
 (included in total energy above)

 **********************************************************************

            Population analysis using the SCF Density.

 **********************************************************************

 Orbital symmetries:
       Occupied  (A) (A) (A) (A) (A) (A) (A) (A) (A) (A) (A) (A)
                 (A) (A) (A) (A) (A) (A) (A) (A) (A) (A) (A) (A)
                 (A) (A) (A) (A) (A) (A) (A) (A) (A) (A) (A) (A)
                 (A) (A) (A) (A) (A) (A) (A) (A) (A) (A) (A) (A)
                 (A) (A) (A) (A) (A) (A) (A) (A) (A)
       Virtual   (A) (A) (A) (A) (A) (A) (A) (A) (A) (A) (A) (A)
                 (A) (A) (A) (A) (A) (A) (A) (A) (A) (A) (A) (A)
                 (A) (A) (A) (A) (A) (A) (A) (A) (A) (A) (A) (A)
                 (A) (A) (A) (A) (A) (A) (A) (A) (A) (A) (A) (A)
                 (A) (A) (A) (A) (A) (A) (A) (A) (A) (A) (A) (A)
                 (A) (A) (A) (A) (A) (A) (A) (A) (A) (A) (A) (A)
                 (A) (A) (A) (A) (A) (A) (A) (A) (A) (A) (A) (A)
                 (A) (A) (A) (A) (A) (A) (A) (A) (A) (A) (A) (A)
                 (A) (A) (A) (A) (A) (A) (A) (A) (A) (A) (A) (A)
                 (A) (A) (A) (A) (A) (A) (A) (A) (A) (A) (A) (A)
                 (A) (A) (A) (A) (A) (A) (A) (A) (A) (A) (A) (A)
                 (A) (A) (A) (A) (A) (A) (A) (A) (A) (A) (A) (A)
                 (A) (A) (A) (A) (A) (A) (A) (A) (A) (A) (A) (A)
                 (A) (A) (A) (A) (A) (A) (A) (A) (A) (A) (A) (A)
                 (A) (A) (A) (A) (A) (A) (A) (A) (A) (A) (A) (A)
                 (A) (A) (A) (A) (A) (A) (A) (A) (A) (A) (A) (A)
                 (A) (A) (A) (A) (A) (A) (A) (A) (A) (A) (A) (A)
                 (A) (A) (A) (A) (A) (A) (A)
 The electronic state is 1-A.
 Alpha  occ. eigenvalues --  -20.57164 -20.57163 -11.29417 -11.29363 -11.24190
 Alpha  occ. eigenvalues --  -11.24189 -11.23416 -11.23416 -11.23402 -11.23402
 Alpha  occ. eigenvalues --  -11.23280 -11.23280 -11.23230 -11.23230 -11.23110
 Alpha  occ. eigenvalues --  -11.23110  -1.37001  -1.35787  -1.15103  -1.14679
 Alpha  occ. eigenvalues --   -1.05188  -1.02259  -1.00955  -1.00869  -0.95926
 Alpha  occ. eigenvalues --   -0.86672  -0.82221  -0.81995  -0.80724  -0.77251
 Alpha  occ. eigenvalues --   -0.71397  -0.70692  -0.67490  -0.66446  -0.65462
 Alpha  occ. eigenvalues --   -0.63024  -0.61856  -0.61655  -0.60809  -0.58309
 Alpha  occ. eigenvalues --   -0.58255  -0.57747  -0.56976  -0.54923  -0.52946
 Alpha  occ. eigenvalues --   -0.50350  -0.50163  -0.49630  -0.48650  -0.48236
 Alpha  occ. eigenvalues --   -0.47080  -0.45177  -0.43787  -0.33865  -0.33466
 Alpha  occ. eigenvalues --   -0.32558  -0.32484
 Alpha virt. eigenvalues --    0.13143   0.13267   0.14466   0.14547   0.24417
 Alpha virt. eigenvalues --    0.24541   0.25309   0.26318   0.29188   0.29407
 Alpha virt. eigenvalues --    0.31637   0.31695   0.32138   0.33107   0.34044
 Alpha virt. eigenvalues --    0.34622   0.34872   0.34951   0.36216   0.37309
 Alpha virt. eigenvalues --    0.41199   0.41274   0.43238   0.43735   0.47278
 Alpha virt. eigenvalues --    0.48306   0.48620   0.49260   0.51945   0.52076
 Alpha virt. eigenvalues --    0.53840   0.55156   0.56901   0.66204   0.66486
 Alpha virt. eigenvalues --    0.71269   0.73352   0.73601   0.74400   0.75649
 Alpha virt. eigenvalues --    0.76655   0.77622   0.78454   0.79252   0.80200
 Alpha virt. eigenvalues --    0.80932   0.81915   0.82703   0.82827   0.84126
 Alpha virt. eigenvalues --    0.84168   0.84676   0.84874   0.86023   0.86488
 Alpha virt. eigenvalues --    0.87505   0.87632   0.89431   0.91709   0.91715
 Alpha virt. eigenvalues --    0.93455   0.93760   0.97212   0.99049   1.02949
 Alpha virt. eigenvalues --    1.04995   1.07006   1.07396   1.09131   1.09886
 Alpha virt. eigenvalues --    1.11424   1.11519   1.11778   1.12125   1.12509
 Alpha virt. eigenvalues --    1.12981   1.13049   1.15152   1.15407   1.16684
 Alpha virt. eigenvalues --    1.16703   1.18006   1.18927   1.20394   1.21239
 Alpha virt. eigenvalues --    1.21362   1.22154   1.23646   1.26239   1.27151
 Alpha virt. eigenvalues --    1.29334   1.31841   1.32040   1.34583   1.35431
 Alpha virt. eigenvalues --    1.37875   1.38258   1.39822   1.41759   1.42148
 Alpha virt. eigenvalues --    1.44965   1.46517   1.48412   1.49220   1.53113
 Alpha virt. eigenvalues --    1.53717   1.61447   1.63507   1.64702   1.67745
 Alpha virt. eigenvalues --    1.69433   1.70726   1.71450   1.72200   1.73017
 Alpha virt. eigenvalues --    1.73896   1.76722   1.76937   1.78006   1.78638
 Alpha virt. eigenvalues --    1.79581   1.79640   1.79774   1.94053   1.96447
 Alpha virt. eigenvalues --    1.98829   2.00758   2.04633   2.07515   2.08267
 Alpha virt. eigenvalues --    2.13702   2.14765   2.15328   2.16245   2.16859
 Alpha virt. eigenvalues --    2.18008   2.22296   2.22496   2.24032   2.27342
 Alpha virt. eigenvalues --    2.28245   2.28994   2.31016   2.31330   2.35268
 Alpha virt. eigenvalues --    2.35292   2.36753   2.38368   2.39711   2.45489
 Alpha virt. eigenvalues --    2.46509   2.46777   2.47041   2.48508   2.49968
 Alpha virt. eigenvalues --    2.50641   2.51044   2.54477   2.55195   2.58852
 Alpha virt. eigenvalues --    2.62416   2.62971   2.64003   2.64547   2.65142
 Alpha virt. eigenvalues --    2.67649   2.73536   2.76469   2.78773   2.80933
 Alpha virt. eigenvalues --    2.81779   2.84056   2.92726   2.93139   2.94406
 Alpha virt. eigenvalues --    2.95416   2.99812   2.99981   3.03514   3.07189
 Alpha virt. eigenvalues --    3.08203   3.10050   3.10700   3.10776   3.11643
 Alpha virt. eigenvalues --    3.16409   3.17514   3.23027   3.25495   3.27096
 Alpha virt. eigenvalues --    3.35850   3.44685   3.45420   3.78637   3.79315
 Alpha virt. eigenvalues --    4.18085   4.32270   4.50543   4.52072   4.53013
 Alpha virt. eigenvalues --    4.53789   4.55897   4.62148   4.68026   4.74859
 Alpha virt. eigenvalues --    4.78931   4.85532   4.89569   5.06302   5.15879
 Alpha virt. eigenvalues --    5.15899
          Condensed to atoms (all electrons):
               1          2          3          4          5          6
     1  O    8.487160   0.256489  -0.041954   0.002114   0.002547   0.000104
     2  H    0.256489   0.269107   0.004746  -0.000169  -0.000248  -0.000008
     3  C   -0.041954   0.004746   4.769986   0.430936   0.314082  -0.039352
     4  H    0.002114  -0.000169   0.430936   0.516383  -0.068018   0.004575
     5  C    0.002547  -0.000248   0.314082  -0.068018   5.007634   0.529157
     6  C    0.000104  -0.000008  -0.039352   0.004575   0.529157   4.979944
     7  C    0.000002   0.000000   0.001936   0.000025  -0.045981   0.531961
     8  C    0.000002   0.000000   0.000052  -0.000015  -0.028664  -0.050551
     9  C    0.000006  -0.000002   0.002327   0.000238  -0.046098  -0.032456
    10  C    0.001556  -0.000045  -0.039243  -0.002229   0.545913  -0.042913
    11  C    0.199616  -0.022962   0.343106  -0.048634  -0.040602  -0.006425
    12  C   -0.046029   0.001759  -0.040602   0.006215  -0.018634   0.002310
    13  C   -0.001518   0.002722  -0.006425  -0.000053   0.002311   0.001961
    14  C    0.000428  -0.000149  -0.000122  -0.000000   0.000041  -0.000005
    15  C   -0.000003  -0.000022   0.000013   0.000000   0.000014  -0.000030
    16  C   -0.000039  -0.000038  -0.000060   0.000001   0.000008  -0.000088
    17  C    0.002032   0.000255  -0.001855   0.000020  -0.000251  -0.000080
    18  O    0.000610  -0.000049   0.199617  -0.039336  -0.046030  -0.001518
    19  H   -0.000049   0.000003  -0.022963  -0.002015   0.001759   0.002722
    20  H    0.000007  -0.000000  -0.002625   0.000162  -0.032280   0.378078
    21  H    0.000000   0.000000  -0.000079   0.000001   0.002035  -0.028486
    22  H    0.000000  -0.000000   0.000005  -0.000000   0.000139   0.002459
    23  H   -0.000002   0.000000  -0.000073  -0.000004   0.002026   0.000092
    24  H    0.002030  -0.000030  -0.001726   0.002050  -0.031742   0.002542
    25  H   -0.039337  -0.002015  -0.048633  -0.004064   0.006215  -0.000053
    26  H    0.005367  -0.000345  -0.000441   0.000009   0.000770  -0.000246
    27  H    0.000001   0.000004   0.000001  -0.000000  -0.000004  -0.000001
    28  H   -0.000000  -0.000000   0.000000   0.000000  -0.000000  -0.000000
    29  H    0.000000   0.000000   0.000002  -0.000000   0.000000  -0.000000
    30  H    0.000010   0.000001  -0.000313   0.000019   0.000044  -0.000003
               7          8          9         10         11         12
     1  O    0.000002   0.000002   0.000006   0.001556   0.199616  -0.046029
     2  H    0.000000   0.000000  -0.000002  -0.000045  -0.022962   0.001759
     3  C    0.001936   0.000052   0.002327  -0.039243   0.343106  -0.040602
     4  H    0.000025  -0.000015   0.000238  -0.002229  -0.048634   0.006215
     5  C   -0.045981  -0.028664  -0.046098   0.545913  -0.040602  -0.018634
     6  C    0.531961  -0.050551  -0.032456  -0.042913  -0.006425   0.002310
     7  C    4.951017   0.543036  -0.048967  -0.032661  -0.000122   0.000041
     8  C    0.543036   4.944613   0.544271  -0.051035   0.000013   0.000014
     9  C   -0.048967   0.544271   4.946698   0.536305  -0.000060   0.000008
    10  C   -0.032661  -0.051035   0.536305   4.965009  -0.001855  -0.000251
    11  C   -0.000122   0.000013  -0.000060  -0.001855   4.769983   0.314085
    12  C    0.000041   0.000014   0.000008  -0.000251   0.314085   5.007628
    13  C   -0.000006  -0.000030  -0.000087  -0.000080  -0.039351   0.529159
    14  C   -0.000046  -0.000005   0.000001   0.000024   0.001936  -0.045980
    15  C   -0.000005   0.000000   0.000000   0.000001   0.000052  -0.028665
    16  C    0.000001   0.000000  -0.000000   0.000000   0.002327  -0.046098
    17  C    0.000024   0.000001   0.000000  -0.000015  -0.039245   0.545911
    18  O    0.000428  -0.000003  -0.000039   0.002032  -0.041954   0.002546
    19  H   -0.000149  -0.000022  -0.000038   0.000255   0.004746  -0.000248
    20  H   -0.025365   0.002405   0.000057   0.002545  -0.000441   0.000770
    21  H    0.382883  -0.028567   0.002368   0.000154   0.000001  -0.000004
    22  H   -0.028841   0.382592  -0.028883   0.002411   0.000000  -0.000000
    23  H    0.002426  -0.028723   0.382446  -0.027863   0.000002   0.000000
    24  H    0.000057   0.002406  -0.027373   0.380666  -0.000313   0.000044
    25  H   -0.000000   0.000000   0.000001   0.000020   0.430935  -0.068016
    26  H   -0.000121   0.000009   0.000240   0.001406  -0.002625  -0.032280
    27  H    0.000004   0.000000  -0.000000  -0.000001  -0.000079   0.002035
    28  H   -0.000000  -0.000000   0.000000   0.000000   0.000005   0.000139
    29  H   -0.000000  -0.000000  -0.000000  -0.000000  -0.000073   0.002026
    30  H    0.000000   0.000000   0.000000  -0.000000  -0.001726  -0.031742
              13         14         15         16         17         18
     1  O   -0.001518   0.000428  -0.000003  -0.000039   0.002032   0.000610
     2  H    0.002722  -0.000149  -0.000022  -0.000038   0.000255  -0.000049
     3  C   -0.006425  -0.000122   0.000013  -0.000060  -0.001855   0.199617
     4  H   -0.000053  -0.000000   0.000000   0.000001   0.000020  -0.039336
     5  C    0.002311   0.000041   0.000014   0.000008  -0.000251  -0.046030
     6  C    0.001961  -0.000005  -0.000030  -0.000088  -0.000080  -0.001518
     7  C   -0.000006  -0.000046  -0.000005   0.000001   0.000024   0.000428
     8  C   -0.000030  -0.000005   0.000000   0.000000   0.000001  -0.000003
     9  C   -0.000087   0.000001   0.000000  -0.000000   0.000000  -0.000039
    10  C   -0.000080   0.000024   0.000001   0.000000  -0.000015   0.002032
    11  C   -0.039351   0.001936   0.000052   0.002327  -0.039245  -0.041954
    12  C    0.529159  -0.045980  -0.028665  -0.046098   0.545911   0.002546
    13  C    4.979947   0.531961  -0.050551  -0.032457  -0.042912   0.000104
    14  C    0.531961   4.951014   0.543036  -0.048967  -0.032661   0.000002
    15  C   -0.050551   0.543036   4.944615   0.544272  -0.051035   0.000002
    16  C   -0.032457  -0.048967   0.544272   4.946701   0.536304   0.000006
    17  C   -0.042912  -0.032661  -0.051035   0.536304   4.965012   0.001556
    18  O    0.000104   0.000002   0.000002   0.000006   0.001556   8.487157
    19  H   -0.000008   0.000000   0.000000  -0.000002  -0.000045   0.256490
    20  H   -0.000246  -0.000121   0.000009   0.000241   0.001406   0.005366
    21  H   -0.000001   0.000004   0.000000  -0.000000  -0.000001   0.000001
    22  H   -0.000000  -0.000000  -0.000000   0.000000   0.000000  -0.000000
    23  H   -0.000000  -0.000000  -0.000000  -0.000000  -0.000000   0.000000
    24  H   -0.000003   0.000000   0.000000   0.000000  -0.000000   0.000010
    25  H    0.004575   0.000025  -0.000015   0.000238  -0.002229   0.002114
    26  H    0.378078  -0.025365   0.002405   0.000057   0.002545   0.000007
    27  H   -0.028486   0.382883  -0.028567   0.002368   0.000154   0.000000
    28  H    0.002459  -0.028841   0.382591  -0.028884   0.002411   0.000000
    29  H    0.000093   0.002426  -0.028723   0.382445  -0.027863  -0.000002
    30  H    0.002542   0.000057   0.002406  -0.027373   0.380666   0.002030
              19         20         21         22         23         24
     1  O   -0.000049   0.000007   0.000000   0.000000  -0.000002   0.002030
     2  H    0.000003  -0.000000   0.000000  -0.000000   0.000000  -0.000030
     3  C   -0.022963  -0.002625  -0.000079   0.000005  -0.000073  -0.001726
     4  H   -0.002015   0.000162   0.000001  -0.000000  -0.000004   0.002050
     5  C    0.001759  -0.032280   0.002035   0.000139   0.002026  -0.031742
     6  C    0.002722   0.378078  -0.028486   0.002459   0.000092   0.002542
     7  C   -0.000149  -0.025365   0.382883  -0.028841   0.002426   0.000057
     8  C   -0.000022   0.002405  -0.028567   0.382592  -0.028723   0.002406
     9  C   -0.000038   0.000057   0.002368  -0.028883   0.382446  -0.027373
    10  C    0.000255   0.002545   0.000154   0.002411  -0.027863   0.380666
    11  C    0.004746  -0.000441   0.000001   0.000000   0.000002  -0.000313
    12  C   -0.000248   0.000770  -0.000004  -0.000000   0.000000   0.000044
    13  C   -0.000008  -0.000246  -0.000001  -0.000000  -0.000000  -0.000003
    14  C    0.000000  -0.000121   0.000004  -0.000000  -0.000000   0.000000
    15  C    0.000000   0.000009   0.000000  -0.000000  -0.000000   0.000000
    16  C   -0.000002   0.000241  -0.000000   0.000000  -0.000000   0.000000
    17  C   -0.000045   0.001406  -0.000001   0.000000  -0.000000  -0.000000
    18  O    0.256490   0.005366   0.000001  -0.000000   0.000000   0.000010
    19  H    0.269105  -0.000345   0.000004  -0.000000   0.000000   0.000001
    20  H   -0.000345   0.432398  -0.001243  -0.000090   0.000008  -0.000083
    21  H    0.000004  -0.001243   0.436563  -0.001273  -0.000090   0.000008
    22  H   -0.000000  -0.000090  -0.001273   0.439107  -0.001288  -0.000090
    23  H    0.000000   0.000008  -0.000090  -0.001288   0.436693  -0.001308
    24  H    0.000001  -0.000083   0.000008  -0.000090  -0.001308   0.434306
    25  H   -0.000169   0.000009  -0.000000   0.000000  -0.000000   0.000019
    26  H   -0.000000   0.000007   0.000000  -0.000000  -0.000001   0.000028
    27  H    0.000000   0.000000  -0.000000   0.000000   0.000000  -0.000000
    28  H   -0.000000  -0.000000   0.000000   0.000000   0.000000   0.000000
    29  H    0.000000  -0.000001   0.000000   0.000000   0.000000  -0.000000
    30  H   -0.000030   0.000028  -0.000000   0.000000  -0.000000   0.000000
              25         26         27         28         29         30
     1  O   -0.039337   0.005367   0.000001  -0.000000   0.000000   0.000010
     2  H   -0.002015  -0.000345   0.000004  -0.000000   0.000000   0.000001
     3  C   -0.048633  -0.000441   0.000001   0.000000   0.000002  -0.000313
     4  H   -0.004064   0.000009  -0.000000   0.000000  -0.000000   0.000019
     5  C    0.006215   0.000770  -0.000004  -0.000000   0.000000   0.000044
     6  C   -0.000053  -0.000246  -0.000001  -0.000000  -0.000000  -0.000003
     7  C   -0.000000  -0.000121   0.000004  -0.000000  -0.000000   0.000000
     8  C    0.000000   0.000009   0.000000  -0.000000  -0.000000   0.000000
     9  C    0.000001   0.000240  -0.000000   0.000000  -0.000000   0.000000
    10  C    0.000020   0.001406  -0.000001   0.000000  -0.000000  -0.000000
    11  C    0.430935  -0.002625  -0.000079   0.000005  -0.000073  -0.001726
    12  C   -0.068016  -0.032280   0.002035   0.000139   0.002026  -0.031742
    13  C    0.004575   0.378078  -0.028486   0.002459   0.000093   0.002542
    14  C    0.000025  -0.025365   0.382883  -0.028841   0.002426   0.000057
    15  C   -0.000015   0.002405  -0.028567   0.382591  -0.028723   0.002406
    16  C    0.000238   0.000057   0.002368  -0.028884   0.382445  -0.027373
    17  C   -0.002229   0.002545   0.000154   0.002411  -0.027863   0.380666
    18  O    0.002114   0.000007   0.000000   0.000000  -0.000002   0.002030
    19  H   -0.000169  -0.000000   0.000000  -0.000000   0.000000  -0.000030
    20  H    0.000009   0.000007   0.000000  -0.000000  -0.000001   0.000028
    21  H   -0.000000   0.000000  -0.000000   0.000000   0.000000  -0.000000
    22  H    0.000000  -0.000000   0.000000   0.000000   0.000000   0.000000
    23  H   -0.000000  -0.000001   0.000000   0.000000   0.000000  -0.000000
    24  H    0.000019   0.000028  -0.000000   0.000000  -0.000000   0.000000
    25  H    0.516381   0.000162   0.000001  -0.000000  -0.000004   0.002050
    26  H    0.000162   0.432398  -0.001243  -0.000090   0.000008  -0.000083
    27  H    0.000001  -0.001243   0.436561  -0.001273  -0.000090   0.000008
    28  H   -0.000000  -0.000090  -0.001273   0.439109  -0.001288  -0.000090
    29  H   -0.000004   0.000008  -0.000090  -0.001288   0.436695  -0.001308
    30  H    0.002050  -0.000083   0.000008  -0.000090  -0.001308   0.434303
 Mulliken charges:
               1
     1  O   -0.831148
     2  H    0.490997
     3  C    0.179657
     4  H    0.201789
     5  C   -0.056143
     6  C   -0.233690
     7  C   -0.231574
     8  C   -0.231801
     9  C   -0.230962
    10  C   -0.240103
    11  C    0.179660
    12  C   -0.056142
    13  C   -0.233694
    14  C   -0.231572
    15  C   -0.231802
    16  C   -0.230964
    17  C   -0.240103
    18  O   -0.831146
    19  H    0.490996
    20  H    0.239345
    21  H    0.235723
    22  H    0.233753
    23  H    0.235657
    24  H    0.238499
    25  H    0.201790
    26  H    0.239344
    27  H    0.235725
    28  H    0.233752
    29  H    0.235656
    30  H    0.238501
 Sum of Mulliken charges =  -0.00000
 Mulliken charges with hydrogens summed into heavy atoms:
               1
     1  O   -0.340152
     3  C    0.381446
     5  C   -0.056143
     6  C    0.005655
     7  C    0.004150
     8  C    0.001952
     9  C    0.004695
    10  C   -0.001604
    11  C    0.381450
    12  C   -0.056142
    13  C    0.005650
    14  C    0.004152
    15  C    0.001950
    16  C    0.004692
    17  C   -0.001602
    18  O   -0.340150
 Electronic spatial extent (au):  <R**2>=           3436.9321
 Charge=             -0.0000 electrons
 Dipole moment (field-independent basis, Debye):
    X=              0.0000    Y=              1.7344    Z=              0.0000  Tot=              1.7344
 Quadrupole moment (field-independent basis, Debye-Ang):
   XX=            -83.6601   YY=            -89.8903   ZZ=            -89.7065
   XY=             -0.0000   XZ=              0.2732   YZ=             -0.0002
 Traceless Quadrupole moment (field-independent basis, Debye-Ang):
   XX=              4.0922   YY=             -2.1380   ZZ=             -1.9542
   XY=             -0.0000   XZ=              0.2732   YZ=             -0.0002
 Octapole moment (field-independent basis, Debye-Ang**2):
  XXX=             -0.0038  YYY=             10.9341  ZZZ=              0.0003  XYY=              0.0005
  XXY=              9.4629  XXZ=              0.0008  XZZ=              0.0017  YZZ=              1.6121
  YYZ=              0.0006  XYZ=             -7.1266
 Hexadecapole moment (field-independent basis, Debye-Ang**3):
 XXXX=          -2717.5682 YYYY=          -1154.3129 ZZZZ=           -611.2147 XXXY=              0.0025
 XXXZ=           -146.1919 YYYX=             -0.0030 YYYZ=             -0.0020 ZZZX=             34.3729
 ZZZY=             -0.0004 XXYY=           -554.9986 XXZZ=           -528.7285 YYZZ=           -313.9571
 XXYZ=              0.0001 YYXZ=             32.8771 ZZXY=              0.0009
 N-N= 1.057572998210D+03 E-N=-3.724326058971D+03  KE= 6.864647785182D+02
 D1PCM: PCM CHGder 1st derivatives, ID1Alg=3 FixD1E=F DoIter=F DoCFld=F I1PDM=0.
 Calling FoFJK, ICntrl=      2127 FMM=F ISym2X=0 I1Cent= 0 IOpClX= 0 NMat=1 NMatS=1 NMatT=0.
 ***** Axes restored to original set *****
 -------------------------------------------------------------------
 Center     Atomic                   Forces (Hartrees/Bohr)
 Number     Number              X              Y              Z
 -------------------------------------------------------------------
      1        8          -0.009414071    0.013623468    0.007724242
      2        1           0.019823191   -0.007031374    0.010842674
      3        6           0.017786022   -0.015580284    0.004257276
      4        1          -0.007858466    0.008235548   -0.006398258
      5        6           0.002742590    0.011797404   -0.006338712
      6        6          -0.000959603   -0.000176863   -0.000617999
      7        6          -0.000994143   -0.002409308   -0.000346429
      8        6           0.001306856    0.002267366   -0.000213963
      9        6          -0.002030315   -0.001460747   -0.000347942
     10        6          -0.000821061    0.000717718    0.001161376
     11        6          -0.017786288   -0.015576048   -0.004258904
     12        6          -0.002736038    0.011786482    0.006337235
     13        6           0.000960630   -0.000170464    0.000612895
     14        6           0.000994671   -0.002416790    0.000347996
     15        6          -0.001308783    0.002275417    0.000213970
     16        6           0.002026162   -0.001466825    0.000355098
     17        6           0.000815625    0.000724199   -0.001159644
     18        8           0.009409352    0.013621657   -0.007727136
     19        1          -0.019818811   -0.007032584   -0.010839429
     20        1           0.008458274   -0.001856872   -0.006705497
     21        1           0.000974345   -0.007210078   -0.004819822
     22        1          -0.004769903   -0.006834178    0.001031013
     23        1          -0.006071180   -0.000507591    0.006210851
     24        1          -0.001316519    0.006426857    0.007506738
     25        1           0.007857751    0.008236237    0.006399284
     26        1          -0.008459219   -0.001856447    0.006708154
     27        1          -0.000973193   -0.007205789    0.004818363
     28        1           0.004772248   -0.006837363   -0.001031408
     29        1           0.006074045   -0.000507800   -0.006214871
     30        1           0.001315829    0.006425051   -0.007507153
 -------------------------------------------------------------------
 Cartesian Forces:  Max     0.019823191 RMS     0.007139815

 GradGradGradGradGradGradGradGradGradGradGradGradGradGradGradGradGradGrad
 Berny optimization.
 FormGI is forming the generalized inverse of G from B-inverse, IUseBI=4.
 Internal  Forces:  Max     0.023486896 RMS     0.006126038
 Search for a local minimum.
 Step number   1 out of a maximum of  166
 All quantities printed in internal units (Hartrees-Bohrs-Radians)
 Mixed Optimization -- RFO/linear search
 Second derivative matrix not updated -- first step.
 ITU=  0
     Eigenvalues ---    0.00230   0.00502   0.00502   0.01208   0.01208
     Eigenvalues ---    0.01417   0.01417   0.02052   0.02052   0.02086
     Eigenvalues ---    0.02086   0.02096   0.02096   0.02129   0.02129
     Eigenvalues ---    0.02159   0.02159   0.02162   0.02162   0.02171
     Eigenvalues ---    0.02171   0.02181   0.02181   0.04139   0.04139
     Eigenvalues ---    0.05199   0.05199   0.08348   0.08348   0.15997
     Eigenvalues ---    0.15997   0.15999   0.15999   0.15999   0.15999
     Eigenvalues ---    0.15999   0.15999   0.16000   0.16000   0.16000
     Eigenvalues ---    0.16000   0.18802   0.18802   0.20508   0.20508
     Eigenvalues ---    0.22000   0.22000   0.22000   0.22000   0.23469
     Eigenvalues ---    0.23469   0.24993   0.24993   0.27194   0.30372
     Eigenvalues ---    0.30373   0.33884   0.33884   0.34953   0.34953
     Eigenvalues ---    0.34967   0.34967   0.35176   0.35177   0.35182
     Eigenvalues ---    0.35183   0.35199   0.35200   0.40063   0.40063
     Eigenvalues ---    0.41726   0.41727   0.41773   0.41774   0.45288
     Eigenvalues ---    0.45288   0.46043   0.46043   0.46305   0.46306
     Eigenvalues ---    0.46703   0.46704   0.52760   0.52761
 RFO step:  Lambda=-2.09454528D-02 EMin= 2.30000000D-03
 Linear search not attempted -- first point.
 Iteration  1 RMS(Cart)=  0.06009999 RMS(Int)=  0.00206223
 Iteration  2 RMS(Cart)=  0.00292197 RMS(Int)=  0.00068727
 Iteration  3 RMS(Cart)=  0.00000721 RMS(Int)=  0.00068725
 Iteration  4 RMS(Cart)=  0.00000001 RMS(Int)=  0.00068725
 Variable       Old X    -DE/DX   Delta X   Delta X   Delta X     New X
                                 (Linear)    (Quad)   (Total)
    R1        1.83878  -0.02349   0.00000  -0.04282  -0.04282   1.79597
    R2        2.71468  -0.01606   0.00000  -0.03810  -0.03810   2.67658
    R3        2.07526  -0.00930   0.00000  -0.02584  -0.02584   2.04942
    R4        2.87225  -0.00117   0.00000  -0.00359  -0.00359   2.86866
    R5        2.93935  -0.01742   0.00000  -0.05946  -0.05946   2.87989
    R6        2.71468  -0.01606   0.00000  -0.03810  -0.03810   2.67658
    R7        2.65365  -0.01260   0.00000  -0.02723  -0.02721   2.62644
    R8        2.65226  -0.01278   0.00000  -0.02755  -0.02754   2.62472
    R9        2.63791  -0.00991   0.00000  -0.02046  -0.02046   2.61745
   R10        2.05751  -0.01080   0.00000  -0.02914  -0.02914   2.02837
   R11        2.63261  -0.00776   0.00000  -0.01545  -0.01546   2.61715
   R12        2.05380  -0.00871   0.00000  -0.02338  -0.02338   2.03042
   R13        2.63244  -0.00772   0.00000  -0.01537  -0.01539   2.61706
   R14        2.05352  -0.00839   0.00000  -0.02250  -0.02250   2.03102
   R15        2.63785  -0.01002   0.00000  -0.02071  -0.02071   2.61714
   R16        2.05388  -0.00869   0.00000  -0.02331  -0.02331   2.03057
   R17        2.05729  -0.00978   0.00000  -0.02640  -0.02640   2.03089
   R18        2.87227  -0.00117   0.00000  -0.00360  -0.00360   2.86867
   R19        2.07526  -0.00930   0.00000  -0.02584  -0.02584   2.04942
   R20        2.65364  -0.01259   0.00000  -0.02722  -0.02720   2.62644
   R21        2.65225  -0.01277   0.00000  -0.02753  -0.02752   2.62472
   R22        2.63792  -0.00991   0.00000  -0.02047  -0.02047   2.61745
   R23        2.05752  -0.01080   0.00000  -0.02915  -0.02915   2.02837
   R24        2.63260  -0.00776   0.00000  -0.01544  -0.01545   2.61715
   R25        2.05379  -0.00871   0.00000  -0.02337  -0.02337   2.03042
   R26        2.63244  -0.00772   0.00000  -0.01536  -0.01538   2.61706
   R27        2.05353  -0.00840   0.00000  -0.02251  -0.02251   2.03102
   R28        2.63785  -0.01002   0.00000  -0.02071  -0.02071   2.61714
   R29        2.05389  -0.00869   0.00000  -0.02332  -0.02332   2.03057
   R30        2.05728  -0.00978   0.00000  -0.02640  -0.02640   2.03089
   R31        1.83877  -0.02348   0.00000  -0.04281  -0.04281   1.79597
    A1        1.85561   0.00467   0.00000   0.02578   0.02578   1.88140
    A2        1.86721  -0.00121   0.00000   0.02061   0.01878   1.88599
    A3        1.87512  -0.00159   0.00000  -0.02487  -0.02346   1.85165
    A4        1.82895   0.00803   0.00000   0.08162   0.07931   1.90826
    A5        2.01438   0.00375   0.00000  -0.00291  -0.00296   2.01142
    A6        1.93453   0.00954   0.00000   0.03711   0.03433   1.96886
    A7        1.93194  -0.01772   0.00000  -0.09965  -0.09932   1.83262
    A8        2.12439   0.00018   0.00000   0.00157   0.00149   2.12587
    A9        2.08947  -0.00119   0.00000  -0.00349  -0.00358   2.08589
   A10        2.06909   0.00102   0.00000   0.00234   0.00232   2.07141
   A11        2.10620  -0.00002   0.00000  -0.00082  -0.00083   2.10537
   A12        2.09970  -0.00114   0.00000  -0.00579  -0.00585   2.09384
   A13        2.07709   0.00117   0.00000   0.00694   0.00688   2.08397
   A14        2.09556   0.00049   0.00000   0.00297   0.00298   2.09854
   A15        2.09232  -0.00064   0.00000  -0.00366  -0.00367   2.08865
   A16        2.09526   0.00015   0.00000   0.00074   0.00073   2.09599
   A17        2.09324  -0.00204   0.00000  -0.00667  -0.00669   2.08654
   A18        2.09483   0.00106   0.00000   0.00359   0.00357   2.09840
   A19        2.09508   0.00098   0.00000   0.00318   0.00316   2.09824
   A20        2.09551  -0.00009   0.00000   0.00051   0.00049   2.09600
   A21        2.09493   0.00042   0.00000   0.00183   0.00180   2.09674
   A22        2.09273  -0.00032   0.00000  -0.00227  -0.00230   2.09043
   A23        2.10664   0.00064   0.00000   0.00182   0.00183   2.10847
   A24        2.09685  -0.00170   0.00000  -0.00848  -0.00852   2.08833
   A25        2.07964   0.00106   0.00000   0.00679   0.00675   2.08639
   A26        1.93193  -0.01772   0.00000  -0.09965  -0.09932   1.83261
   A27        1.93453   0.00954   0.00000   0.03710   0.03433   1.96886
   A28        1.82894   0.00803   0.00000   0.08163   0.07932   1.90826
   A29        2.01437   0.00375   0.00000  -0.00290  -0.00296   2.01142
   A30        1.87513  -0.00159   0.00000  -0.02487  -0.02347   1.85166
   A31        1.86721  -0.00121   0.00000   0.02060   0.01878   1.88599
   A32        2.12439   0.00018   0.00000   0.00156   0.00148   2.12587
   A33        2.08945  -0.00118   0.00000  -0.00348  -0.00356   2.08589
   A34        2.06910   0.00102   0.00000   0.00233   0.00231   2.07142
   A35        2.10620  -0.00002   0.00000  -0.00082  -0.00083   2.10537
   A36        2.09970  -0.00114   0.00000  -0.00579  -0.00586   2.09384
   A37        2.07709   0.00117   0.00000   0.00695   0.00688   2.08397
   A38        2.09555   0.00049   0.00000   0.00298   0.00298   2.09853
   A39        2.09233  -0.00064   0.00000  -0.00366  -0.00367   2.08865
   A40        2.09527   0.00015   0.00000   0.00074   0.00073   2.09600
   A41        2.09324  -0.00204   0.00000  -0.00667  -0.00669   2.08655
   A42        2.09483   0.00106   0.00000   0.00359   0.00357   2.09840
   A43        2.09508   0.00099   0.00000   0.00318   0.00316   2.09824
   A44        2.09551  -0.00009   0.00000   0.00051   0.00049   2.09600
   A45        2.09493   0.00042   0.00000   0.00183   0.00180   2.09674
   A46        2.09272  -0.00032   0.00000  -0.00227  -0.00229   2.09043
   A47        2.10663   0.00065   0.00000   0.00183   0.00184   2.10846
   A48        2.09685  -0.00170   0.00000  -0.00849  -0.00852   2.08833
   A49        2.07964   0.00106   0.00000   0.00678   0.00675   2.08639
   A50        1.85562   0.00467   0.00000   0.02578   0.02578   1.88140
    D1       -2.92072  -0.00225   0.00000  -0.01738  -0.01875  -2.93946
    D2       -0.66235  -0.00382   0.00000  -0.07152  -0.07318  -0.73553
    D3        1.34605   0.00361   0.00000   0.01437   0.01739   1.36343
    D4       -2.59538  -0.00427   0.00000  -0.03477  -0.03500  -2.63038
    D5        0.56996  -0.00501   0.00000  -0.05550  -0.05569   0.51427
    D6        1.60262  -0.00371   0.00000  -0.01623  -0.01681   1.58582
    D7       -1.51522  -0.00445   0.00000  -0.03695  -0.03750  -1.55272
    D8       -0.61101   0.00933   0.00000   0.09156   0.09232  -0.51869
    D9        2.55433   0.00859   0.00000   0.07083   0.07162   2.62596
   D10       -0.82067  -0.00009   0.00000  -0.03421  -0.03346  -0.85413
   D11       -3.03560  -0.00083   0.00000   0.00436   0.00412  -3.03148
   D12        1.16675  -0.00049   0.00000  -0.00212  -0.00108   1.16567
   D13        1.26016  -0.00042   0.00000  -0.02773  -0.02825   1.23191
   D14       -0.95478  -0.00117   0.00000   0.01084   0.00933  -0.94544
   D15       -3.03561  -0.00083   0.00000   0.00436   0.00413  -3.03148
   D16       -2.80809   0.00032   0.00000  -0.06630  -0.06583  -2.87392
   D17        1.26016  -0.00042   0.00000  -0.02773  -0.02825   1.23191
   D18       -0.82067  -0.00009   0.00000  -0.03420  -0.03345  -0.85412
   D19        1.34609   0.00361   0.00000   0.01437   0.01739   1.36347
   D20       -0.66231  -0.00382   0.00000  -0.07152  -0.07318  -0.73548
   D21       -2.92068  -0.00225   0.00000  -0.01738  -0.01874  -2.93943
   D22       -3.13556  -0.00044   0.00000  -0.01224  -0.01225   3.13538
   D23       -0.01509   0.00038   0.00000   0.00669   0.00662  -0.00847
   D24       -0.01744   0.00027   0.00000   0.00817   0.00820  -0.00924
   D25        3.10303   0.00108   0.00000   0.02711   0.02707   3.13009
   D26        3.13472   0.00023   0.00000   0.00683   0.00678   3.14150
   D27        0.00551  -0.00030   0.00000  -0.00517  -0.00516   0.00036
   D28        0.01613  -0.00048   0.00000  -0.01323  -0.01326   0.00287
   D29       -3.11308  -0.00100   0.00000  -0.02524  -0.02520  -3.13828
   D30        0.00679   0.00008   0.00000   0.00127   0.00127   0.00806
   D31        3.13847   0.00033   0.00000   0.00752   0.00753  -3.13718
   D32       -3.11395  -0.00070   0.00000  -0.01727  -0.01734  -3.13129
   D33        0.01773  -0.00044   0.00000  -0.01102  -0.01108   0.00665
   D34        0.00555  -0.00024   0.00000  -0.00589  -0.00589  -0.00034
   D35        3.13718   0.00023   0.00000   0.00551   0.00553  -3.14048
   D36       -3.12612  -0.00049   0.00000  -0.01212  -0.01215  -3.13827
   D37        0.00551  -0.00002   0.00000  -0.00073  -0.00074   0.00478
   D38       -0.00686   0.00002   0.00000   0.00085   0.00086  -0.00600
   D39        3.12848   0.00057   0.00000   0.01402   0.01405  -3.14066
   D40       -3.13849  -0.00044   0.00000  -0.01055  -0.01056   3.13414
   D41       -0.00315   0.00011   0.00000   0.00262   0.00263  -0.00052
   D42       -0.00415   0.00036   0.00000   0.00890   0.00889   0.00474
   D43        3.12518   0.00085   0.00000   0.02068   0.02070  -3.13730
   D44       -3.13950  -0.00020   0.00000  -0.00427  -0.00427   3.13942
   D45       -0.01017   0.00030   0.00000   0.00751   0.00755  -0.00262
   D46       -0.61095   0.00933   0.00000   0.09156   0.09232  -0.51863
   D47        2.55440   0.00859   0.00000   0.07083   0.07162   2.62602
   D48        1.60268  -0.00371   0.00000  -0.01623  -0.01681   1.58587
   D49       -1.51516  -0.00445   0.00000  -0.03696  -0.03750  -1.55266
   D50       -2.59532  -0.00427   0.00000  -0.03478  -0.03501  -2.63032
   D51        0.57003  -0.00501   0.00000  -0.05551  -0.05570   0.51433
   D52       -3.13555  -0.00044   0.00000  -0.01224  -0.01225   3.13538
   D53       -0.01507   0.00038   0.00000   0.00669   0.00661  -0.00846
   D54       -0.01745   0.00027   0.00000   0.00818   0.00820  -0.00924
   D55        3.10303   0.00108   0.00000   0.02711   0.02706   3.13009
   D56        3.13472   0.00023   0.00000   0.00683   0.00678   3.14149
   D57        0.00551  -0.00030   0.00000  -0.00517  -0.00516   0.00035
   D58        0.01613  -0.00048   0.00000  -0.01323  -0.01326   0.00287
   D59       -3.11307  -0.00100   0.00000  -0.02524  -0.02520  -3.13828
   D60        0.00678   0.00008   0.00000   0.00127   0.00128   0.00806
   D61        3.13848   0.00033   0.00000   0.00751   0.00753  -3.13718
   D62       -3.11396  -0.00070   0.00000  -0.01727  -0.01733  -3.13129
   D63        0.01773  -0.00044   0.00000  -0.01102  -0.01108   0.00666
   D64        0.00556  -0.00024   0.00000  -0.00590  -0.00590  -0.00034
   D65        3.13717   0.00023   0.00000   0.00551   0.00553  -3.14048
   D66       -3.12611  -0.00049   0.00000  -0.01213  -0.01215  -3.13827
   D67        0.00550  -0.00002   0.00000  -0.00072  -0.00073   0.00477
   D68       -0.00687   0.00002   0.00000   0.00086   0.00087  -0.00600
   D69        3.12846   0.00057   0.00000   0.01403   0.01406  -3.14066
   D70       -3.13849  -0.00044   0.00000  -0.01056  -0.01056   3.13414
   D71       -0.00315   0.00011   0.00000   0.00262   0.00263  -0.00052
   D72       -0.00415   0.00035   0.00000   0.00890   0.00889   0.00474
   D73        3.12518   0.00085   0.00000   0.02068   0.02070  -3.13730
   D74       -3.13949  -0.00020   0.00000  -0.00427  -0.00427   3.13942
   D75       -0.01017   0.00030   0.00000   0.00751   0.00755  -0.00262
         Item               Value     Threshold  Converged?
 Maximum Force            0.023487     0.000450     NO 
 RMS     Force            0.006126     0.000300     NO 
 Maximum Displacement     0.352664     0.001800     NO 
 RMS     Displacement     0.060875     0.001200     NO 
 Predicted change in Energy=-1.194333D-02
 GradGradGradGradGradGradGradGradGradGradGradGradGradGradGradGradGradGrad

                          Input orientation:                          
 ---------------------------------------------------------------------
 Center     Atomic      Atomic             Coordinates (Angstroms)
 Number     Number       Type             X           Y           Z
 ---------------------------------------------------------------------
      1          8           0       -0.141678   -1.862647   -1.758346
      2          1           0       -0.859988   -1.689463   -2.356064
      3          6           0        0.622892   -1.679982    0.438949
      4          1           0        1.198961   -2.549971    0.143288
      5          6           0        1.512213   -0.457516    0.300740
      6          6           0        1.346809    0.663375    1.105685
      7          6           0        2.177063    1.762915    0.963613
      8          6           0        3.179140    1.761286    0.007640
      9          6           0        3.345821    0.652517   -0.805235
     10          6           0        2.519079   -0.448504   -0.655973
     11          6           0       -0.622918   -1.680037   -0.438798
     12          6           0       -1.512270   -0.457579   -0.300698
     13          6           0       -1.346934    0.663219   -1.105785
     14          6           0       -2.177209    1.762755   -0.963803
     15          6           0       -3.179240    1.761211   -0.007781
     16          6           0       -3.345852    0.652537    0.805235
     17          6           0       -2.519090   -0.448483    0.656065
     18          8           0        0.141661   -1.862491    1.758513
     19          1           0        0.859959   -1.689204    2.356217
     20          1           0        0.568417    0.682775    1.844500
     21          1           0        2.038035    2.619720    1.596864
     22          1           0        3.823959    2.614137   -0.101804
     23          1           0        4.120835    0.640840   -1.549435
     24          1           0        2.658822   -1.305754   -1.288884
     25          1           0       -1.198968   -2.550014   -0.143064
     26          1           0       -0.568578    0.682551   -1.844639
     27          1           0       -2.038236    2.619487   -1.597165
     28          1           0       -3.824075    2.614059    0.101596
     29          1           0       -4.120829    0.640929    1.549475
     30          1           0       -2.658781   -1.305659    1.289085
 ---------------------------------------------------------------------
                    Distance matrix (angstroms):
                    1          2          3          4          5
     1  O    0.000000
     2  H    0.950384   0.000000
     3  C    2.333674   3.164036   0.000000
     4  H    2.426095   3.350598   1.084505   0.000000
     5  C    2.991586   3.768772   1.518031   2.121623   0.000000
     6  C    4.098665   4.731756   2.541637   3.357627   1.389853
     7  C    5.092182   5.671230   3.813693   4.497843   2.410754
     8  C    5.222970   5.814578   4.308451   4.746202   2.790633
     9  C    4.404216   5.057546   3.795114   3.970470   2.411944
    10  C    3.208528   3.981003   2.512154   2.607238   1.388943
    11  C    1.416384   1.931890   1.523970   2.101156   2.569098
    12  C    2.444888   2.483453   2.569098   3.453405   3.083703
    13  C    2.873757   2.708399   3.428849   4.285598   3.377733
    14  C    4.232992   3.948578   4.654108   5.587824   4.487818
    15  C    5.042183   4.774989   5.147581   6.146362   5.198814
    16  C    4.812986   4.653847   4.617980   5.599068   5.008745
    17  C    3.671693   3.655895   3.381683   4.301523   4.046942
    18  O    3.528254   4.238276   1.416383   2.049260   2.444886
    19  H    4.238276   5.016355   1.931891   2.398520   2.483440
    20  H    4.468098   5.031162   2.749756   3.707068   2.138739
    21  H    6.008344   6.526350   4.672348   5.435313   3.380208
    22  H    6.205804   6.748483   5.383187   5.798163   3.865393
    23  H    4.947738   5.557839   4.644943   4.645851   3.381485
    24  H    2.893669   3.697044   2.696380   2.393822   2.135679
    25  H    2.049261   2.398504   2.101159   2.414966   3.453406
    26  H    2.582194   2.443958   3.495131   4.186317   3.198765
    27  H    4.869542   4.531141   5.450944   6.342863   5.067118
    28  H    6.087720   5.774618   6.190971   7.204155   6.160374
    29  H    5.748323   5.596163   5.396553   6.360768   5.873422
    30  H    3.991601   4.082900   3.410605   4.212284   4.369595
                    6          7          8          9         10
     6  C    0.000000
     7  C    1.385097   0.000000
     8  C    2.401780   1.384935   0.000000
     9  C    2.765462   2.393282   1.384888   0.000000
    10  C    2.390384   2.762320   2.399840   1.384929   0.000000
    11  C    3.428825   4.654092   5.147587   4.618006   3.381714
    12  C    3.377690   4.487789   5.198822   5.008784   4.046984
    13  C    3.485233   4.232055   4.788612   4.702381   4.047754
    14  C    4.232036   4.761787   5.443728   5.635746   5.199957
    15  C    4.788546   5.443674   6.358398   6.666450   6.146042
    16  C    4.702283   5.635655   6.666408   6.882739   6.143683
    17  C    4.047662   5.199877   6.146003   6.143678   5.206207
    18  O    2.873772   4.233000   5.042181   4.812973   3.671678
    19  H    2.708409   3.948573   4.774965   4.653810   3.655859
    20  H    1.073367   2.128475   3.369438   3.838747   3.367082
    21  H    2.132214   1.074454   2.136507   3.369016   3.836754
    22  H    3.376355   2.138214   1.074768   2.138079   3.374846
    23  H    3.839973   3.369379   2.136977   1.074531   2.133206
    24  H    3.366423   3.836999   3.370228   2.130894   1.074700
    25  H    4.285583   5.587814   6.146368   5.599087   4.301545
    26  H    3.517597   4.073328   4.317406   4.050158   3.496547
    27  H    4.752926   5.006001   5.525660   5.786552   5.573826
    28  H    5.617065   6.122188   7.055570   7.488484   7.084407
    29  H    5.485665   6.423825   7.544667   7.829154   7.080907
    30  H    4.467156   5.736502   6.717854   6.654012   5.597160
                   11         12         13         14         15
    11  C    0.000000
    12  C    1.518032   0.000000
    13  C    2.541637   1.389852   0.000000
    14  C    3.813694   2.410754   1.385097   0.000000
    15  C    4.308451   2.790631   2.401780   1.384936   0.000000
    16  C    3.795114   2.411943   2.765463   2.393284   1.384888
    17  C    2.512154   1.388944   2.390386   2.762323   2.399841
    18  O    2.333677   2.991591   4.098698   5.092207   5.222968
    19  H    3.164036   3.768762   4.731778   5.671238   5.814549
    20  H    3.495084   3.198678   3.517546   4.073253   4.317280
    21  H    5.450918   5.067068   4.752917   5.005966   5.525566
    22  H    6.190979   6.160385   5.617134   6.122248   7.055574
    23  H    5.396590   5.873478   5.485784   6.423941   7.544735
    24  H    3.410653   4.369659   4.467265   5.736603   6.717921
    25  H    1.084505   2.121624   3.357616   4.497837   4.746203
    26  H    2.749757   2.138739   1.073367   2.128475   3.369437
    27  H    4.672349   3.380207   2.132214   1.074454   2.136509
    28  H    5.383187   3.865391   3.376355   2.138215   1.074768
[...]
 Alpha virt. eigenvalues --    0.42470   0.42519   0.44404   0.44852   0.47632
 Alpha virt. eigenvalues --    0.48820   0.49191   0.49918   0.52174   0.52850
 Alpha virt. eigenvalues --    0.54935   0.55528   0.57337   0.67059   0.67779
 Alpha virt. eigenvalues --    0.71990   0.73618   0.74478   0.74942   0.76018
 Alpha virt. eigenvalues --    0.77801   0.77951   0.78797   0.79901   0.80094
 Alpha virt. eigenvalues --    0.81330   0.81735   0.83080   0.83184   0.84080
 Alpha virt. eigenvalues --    0.84397   0.84695   0.84990   0.86120   0.86889
 Alpha virt. eigenvalues --    0.86980   0.88415   0.89904   0.91382   0.91714
 Alpha virt. eigenvalues --    0.93750   0.93781   0.98150   0.98353   1.03505
 Alpha virt. eigenvalues --    1.03515   1.07640   1.08878   1.09641   1.11126
 Alpha virt. eigenvalues --    1.12269   1.12362   1.12597   1.12795   1.13522
 Alpha virt. eigenvalues --    1.13571   1.15231   1.16057   1.16253   1.17887
 Alpha virt. eigenvalues --    1.18334   1.19098   1.20203   1.21345   1.21651
 Alpha virt. eigenvalues --    1.21973   1.23345   1.24012   1.27834   1.28046
 Alpha virt. eigenvalues --    1.31890   1.32990   1.33934   1.34368   1.35945
 Alpha virt. eigenvalues --    1.38457   1.38739   1.40736   1.43547   1.43652
 Alpha virt. eigenvalues --    1.46506   1.48021   1.50238   1.50978   1.54201
 Alpha virt. eigenvalues --    1.55120   1.64101   1.64974   1.67737   1.68654
 Alpha virt. eigenvalues --    1.70132   1.71381   1.72652   1.72910   1.75754
 Alpha virt. eigenvalues --    1.75862   1.77481   1.78128   1.79143   1.79715
 Alpha virt. eigenvalues --    1.79840   1.80090   1.84518   1.92440   1.95569
 Alpha virt. eigenvalues --    1.97095   2.01902   2.06064   2.06248   2.09101
 Alpha virt. eigenvalues --    2.14786   2.16689   2.16747   2.17797   2.19001
 Alpha virt. eigenvalues --    2.19097   2.23271   2.23271   2.25798   2.28384
 Alpha virt. eigenvalues --    2.29056   2.33190   2.33333   2.33824   2.37074
 Alpha virt. eigenvalues --    2.39202   2.40200   2.41980   2.42764   2.46139
 Alpha virt. eigenvalues --    2.47729   2.48235   2.49082   2.49963   2.51169
 Alpha virt. eigenvalues --    2.51538   2.51810   2.56212   2.56983   2.60257
 Alpha virt. eigenvalues --    2.63768   2.64219   2.65100   2.65728   2.66729
 Alpha virt. eigenvalues --    2.70479   2.76362   2.78710   2.81098   2.82388
 Alpha virt. eigenvalues --    2.85305   2.89687   2.94035   2.94270   2.95579
 Alpha virt. eigenvalues --    2.97559   3.01921   3.02616   3.04180   3.09565
 Alpha virt. eigenvalues --    3.10578   3.12355   3.12406   3.13056   3.14107
 Alpha virt. eigenvalues --    3.18374   3.18760   3.26535   3.28187   3.28993
 Alpha virt. eigenvalues --    3.38027   3.46542   3.47537   3.82694   3.83322
 Alpha virt. eigenvalues --    4.20617   4.37358   4.52453   4.53278   4.53886
 Alpha virt. eigenvalues --    4.55090   4.56580   4.62334   4.69161   4.75512
 Alpha virt. eigenvalues --    4.79921   4.85371   4.90638   5.09172   5.17848
 Alpha virt. eigenvalues --    5.17921
          Condensed to atoms (all electrons):
               1          2          3          4          5          6
     1  O    8.477725   0.259763  -0.060211   0.003237   0.002017  -0.000002
     2  H    0.259763   0.268047   0.005867  -0.000227  -0.000249  -0.000007
     3  C   -0.060211   0.005867   4.771704   0.427971   0.320565  -0.037992
     4  H    0.003237  -0.000227   0.427971   0.513892  -0.067712   0.004429
     5  C    0.002017  -0.000249   0.320565  -0.067712   4.977649   0.540869
     6  C   -0.000002  -0.000007  -0.037992   0.004429   0.540869   4.967263
     7  C    0.000002  -0.000000   0.001856   0.000016  -0.045128   0.535243
     8  C    0.000005  -0.000000   0.000079  -0.000013  -0.030224  -0.050337
     9  C   -0.000058  -0.000001   0.002492   0.000241  -0.045040  -0.034218
    10  C    0.001895  -0.000027  -0.039803  -0.001189   0.549886  -0.045457
    11  C    0.205478  -0.019460   0.366557  -0.049256  -0.050086  -0.006245
    12  C   -0.051004   0.000864  -0.050086   0.006921  -0.016952   0.002375
    13  C   -0.001647   0.001286  -0.006245  -0.000081   0.002375   0.001863
    14  C    0.000429  -0.000094  -0.000095   0.000000   0.000029  -0.000025
    15  C   -0.000004  -0.000011   0.000010   0.000000   0.000010  -0.000027
    16  C   -0.000042  -0.000017  -0.000051   0.000000   0.000012  -0.000055
    17  C    0.001964   0.000135  -0.001924  -0.000015   0.000256  -0.000091
    18  O    0.001046  -0.000080   0.205478  -0.032495  -0.051004  -0.001647
    19  H   -0.000080   0.000005  -0.019460  -0.003735   0.000864   0.001286
    20  H    0.000009  -0.000000  -0.003858   0.000187  -0.032102   0.380380
    21  H    0.000000   0.000000  -0.000086   0.000002   0.002195  -0.029568
    22  H    0.000000  -0.000000   0.000005  -0.000000   0.000161   0.002494
    23  H   -0.000003   0.000000  -0.000078  -0.000004   0.002118   0.000121
    24  H    0.002188  -0.000029  -0.002140   0.002422  -0.032303   0.002894
    25  H   -0.032495  -0.003735  -0.049256  -0.005773   0.006921  -0.000081
    26  H    0.007145  -0.000334  -0.000475   0.000006   0.001034  -0.000161
    27  H    0.000000   0.000001   0.000001  -0.000000  -0.000004  -0.000002
    28  H   -0.000000  -0.000000   0.000000   0.000000  -0.000000   0.000000
    29  H    0.000000   0.000000   0.000002  -0.000000   0.000000  -0.000000
    30  H    0.000013  -0.000005  -0.000185   0.000008   0.000060  -0.000006
               7          8          9         10         11         12
     1  O    0.000002   0.000005  -0.000058   0.001895   0.205478  -0.051004
     2  H   -0.000000  -0.000000  -0.000001  -0.000027  -0.019460   0.000864
     3  C    0.001856   0.000079   0.002492  -0.039803   0.366557  -0.050086
     4  H    0.000016  -0.000013   0.000241  -0.001189  -0.049256   0.006921
     5  C   -0.045128  -0.030224  -0.045040   0.549886  -0.050086  -0.016952
     6  C    0.535243  -0.050337  -0.034218  -0.045457  -0.006245   0.002375
     7  C    4.947055   0.546814  -0.049806  -0.034530  -0.000095   0.000029
     8  C    0.546814   4.939006   0.547699  -0.051226   0.000010   0.000010
     9  C   -0.049806   0.547699   4.941435   0.539676  -0.000051   0.000012
    10  C   -0.034530  -0.051226   0.539676   4.960749  -0.001924   0.000256
    11  C   -0.000095   0.000010  -0.000051  -0.001924   4.771705   0.320565
    12  C    0.000029   0.000010   0.000012   0.000256   0.320565   4.977648
    13  C   -0.000025  -0.000027  -0.000055  -0.000091  -0.037992   0.540869
    14  C   -0.000052  -0.000003   0.000000   0.000012   0.001856  -0.045128
    15  C   -0.000003   0.000000   0.000000   0.000001   0.000079  -0.030224
    16  C    0.000000   0.000000  -0.000000   0.000000   0.002492  -0.045040
    17  C    0.000012   0.000001   0.000000  -0.000017  -0.039803   0.549887
    18  O    0.000429  -0.000004  -0.000042   0.001964  -0.060211   0.002017
    19  H   -0.000094  -0.000011  -0.000017   0.000135   0.005867  -0.000249
    20  H   -0.027560   0.002571   0.000026   0.002998  -0.000475   0.001034
    21  H    0.384647  -0.029440   0.002554   0.000172   0.000001  -0.000004
    22  H   -0.029294   0.384124  -0.029333   0.002507   0.000000  -0.000000
    23  H    0.002590  -0.029393   0.383995  -0.028726   0.000002   0.000000
    24  H    0.000060   0.002544  -0.028561   0.382374  -0.000185   0.000060
    25  H    0.000000   0.000000   0.000000  -0.000015   0.427971  -0.067712
    26  H   -0.000084   0.000007   0.000130   0.000913  -0.003858  -0.032102
    27  H    0.000003   0.000000  -0.000000  -0.000001  -0.000086   0.002195
    28  H   -0.000000  -0.000000   0.000000   0.000000   0.000005   0.000161
    29  H   -0.000000  -0.000000  -0.000000  -0.000000  -0.000078   0.002118
    30  H    0.000000   0.000000   0.000000  -0.000000  -0.002140  -0.032303
              13         14         15         16         17         18
     1  O   -0.001647   0.000429  -0.000004  -0.000042   0.001964   0.001046
     2  H    0.001286  -0.000094  -0.000011  -0.000017   0.000135  -0.000080
     3  C   -0.006245  -0.000095   0.000010  -0.000051  -0.001924   0.205478
     4  H   -0.000081   0.000000   0.000000   0.000000  -0.000015  -0.032495
     5  C    0.002375   0.000029   0.000010   0.000012   0.000256  -0.051004
     6  C    0.001863  -0.000025  -0.000027  -0.000055  -0.000091  -0.001647
     7  C   -0.000025  -0.000052  -0.000003   0.000000   0.000012   0.000429
     8  C   -0.000027  -0.000003   0.000000   0.000000   0.000001  -0.000004
     9  C   -0.000055   0.000000   0.000000  -0.000000   0.000000  -0.000042
    10  C   -0.000091   0.000012   0.000001   0.000000  -0.000017   0.001964
    11  C   -0.037992   0.001856   0.000079   0.002492  -0.039803  -0.060211
    12  C    0.540869  -0.045128  -0.030224  -0.045040   0.549887   0.002017
    13  C    4.967263   0.535243  -0.050337  -0.034218  -0.045457  -0.000002
    14  C    0.535243   4.947055   0.546813  -0.049806  -0.034530   0.000002
    15  C   -0.050337   0.546813   4.939006   0.547699  -0.051226   0.000005
    16  C   -0.034218  -0.049806   0.547699   4.941435   0.539676  -0.000058
    17  C   -0.045457  -0.034530  -0.051226   0.539676   4.960749   0.001895
    18  O   -0.000002   0.000002   0.000005  -0.000058   0.001895   8.477725
    19  H   -0.000007  -0.000000  -0.000000  -0.000001  -0.000027   0.259763
    20  H   -0.000161  -0.000084   0.000007   0.000130   0.000913   0.007145
    21  H   -0.000002   0.000003   0.000000  -0.000000  -0.000001   0.000000
    22  H    0.000000  -0.000000  -0.000000   0.000000   0.000000  -0.000000
    23  H   -0.000000  -0.000000  -0.000000  -0.000000  -0.000000   0.000000
    24  H   -0.000006   0.000000   0.000000   0.000000  -0.000000   0.000013
    25  H    0.004429   0.000016  -0.000013   0.000241  -0.001189   0.003237
    26  H    0.380380  -0.027560   0.002571   0.000026   0.002998   0.000009
    27  H   -0.029568   0.384647  -0.029440   0.002554   0.000172   0.000000
    28  H    0.002494  -0.029294   0.384124  -0.029333   0.002507   0.000000
    29  H    0.000121   0.002590  -0.029393   0.383995  -0.028726  -0.000003
    30  H    0.002894   0.000060   0.002544  -0.028561   0.382374   0.002188
              19         20         21         22         23         24
     1  O   -0.000080   0.000009   0.000000   0.000000  -0.000003   0.002188
     2  H    0.000005  -0.000000   0.000000  -0.000000   0.000000  -0.000029
     3  C   -0.019460  -0.003858  -0.000086   0.000005  -0.000078  -0.002140
     4  H   -0.003735   0.000187   0.000002  -0.000000  -0.000004   0.002422
     5  C    0.000864  -0.032102   0.002195   0.000161   0.002118  -0.032303
     6  C    0.001286   0.380380  -0.029568   0.002494   0.000121   0.002894
     7  C   -0.000094  -0.027560   0.384647  -0.029294   0.002590   0.000060
     8  C   -0.000011   0.002571  -0.029440   0.384124  -0.029393   0.002544
     9  C   -0.000017   0.000026   0.002554  -0.029333   0.383995  -0.028561
    10  C    0.000135   0.002998   0.000172   0.002507  -0.028726   0.382374
    11  C    0.005867  -0.000475   0.000001   0.000000   0.000002  -0.000185
    12  C   -0.000249   0.001034  -0.000004  -0.000000   0.000000   0.000060
    13  C   -0.000007  -0.000161  -0.000002   0.000000  -0.000000  -0.000006
    14  C   -0.000000  -0.000084   0.000003  -0.000000  -0.000000   0.000000
    15  C   -0.000000   0.000007   0.000000  -0.000000  -0.000000   0.000000
    16  C   -0.000001   0.000130  -0.000000   0.000000  -0.000000   0.000000
    17  C   -0.000027   0.000913  -0.000001   0.000000  -0.000000  -0.000000
    18  O    0.259763   0.007145   0.000000  -0.000000   0.000000   0.000013
    19  H    0.268047  -0.000334   0.000001  -0.000000   0.000000  -0.000005
    20  H   -0.000334   0.437050  -0.001455  -0.000096   0.000009  -0.000096
    21  H    0.000001  -0.001455   0.440591  -0.001415  -0.000099   0.000009
    22  H   -0.000000  -0.000096  -0.001415   0.440266  -0.001410  -0.000097
    23  H    0.000000   0.000009  -0.000099  -0.001410   0.439967  -0.001496
    24  H   -0.000005  -0.000096   0.000009  -0.000097  -0.001496   0.438505
    25  H   -0.000227   0.000006  -0.000000   0.000000  -0.000000   0.000008
    26  H   -0.000000   0.000010   0.000001  -0.000000  -0.000000   0.000012
    27  H    0.000000   0.000001  -0.000000   0.000000   0.000000  -0.000000
    28  H   -0.000000  -0.000000   0.000000   0.000000   0.000000   0.000000
    29  H    0.000000  -0.000000   0.000000   0.000000   0.000000  -0.000000
    30  H   -0.000029   0.000012  -0.000000   0.000000  -0.000000   0.000000
              25         26         27         28         29         30
     1  O   -0.032495   0.007145   0.000000  -0.000000   0.000000   0.000013
     2  H   -0.003735  -0.000334   0.000001  -0.000000   0.000000  -0.000005
     3  C   -0.049256  -0.000475   0.000001   0.000000   0.000002  -0.000185
     4  H   -0.005773   0.000006  -0.000000   0.000000  -0.000000   0.000008
     5  C    0.006921   0.001034  -0.000004  -0.000000   0.000000   0.000060
     6  C   -0.000081  -0.000161  -0.000002   0.000000  -0.000000  -0.000006
     7  C    0.000000  -0.000084   0.000003  -0.000000  -0.000000   0.000000
     8  C    0.000000   0.000007   0.000000  -0.000000  -0.000000   0.000000
     9  C    0.000000   0.000130  -0.000000   0.000000  -0.000000   0.000000
    10  C   -0.000015   0.000913  -0.000001   0.000000  -0.000000  -0.000000
    11  C    0.427971  -0.003858  -0.000086   0.000005  -0.000078  -0.002140
    12  C   -0.067712  -0.032102   0.002195   0.000161   0.002118  -0.032303
    13  C    0.004429   0.380380  -0.029568   0.002494   0.000121   0.002894
    14  C    0.000016  -0.027560   0.384647  -0.029294   0.002590   0.000060
    15  C   -0.000013   0.002571  -0.029440   0.384124  -0.029393   0.002544
    16  C    0.000241   0.000026   0.002554  -0.029333   0.383995  -0.028561
    17  C   -0.001189   0.002998   0.000172   0.002507  -0.028726   0.382374
    18  O    0.003237   0.000009   0.000000   0.000000  -0.000003   0.002188
    19  H   -0.000227  -0.000000   0.000000  -0.000000   0.000000  -0.000029
    20  H    0.000006   0.000010   0.000001  -0.000000  -0.000000   0.000012
    21  H   -0.000000   0.000001  -0.000000   0.000000   0.000000  -0.000000
    22  H    0.000000  -0.000000   0.000000   0.000000   0.000000   0.000000
    23  H   -0.000000  -0.000000   0.000000   0.000000   0.000000  -0.000000
    24  H    0.000008   0.000012  -0.000000   0.000000  -0.000000   0.000000
    25  H    0.513891   0.000187   0.000002  -0.000000  -0.000004   0.002422
    26  H    0.000187   0.437050  -0.001455  -0.000096   0.000009  -0.000096
    27  H    0.000002  -0.001455   0.440591  -0.001415  -0.000099   0.000009
    28  H   -0.000000  -0.000096  -0.001415   0.440266  -0.001410  -0.000097
    29  H   -0.000004   0.000009  -0.000099  -0.001410   0.439967  -0.001496
    30  H    0.002422  -0.000096   0.000009  -0.000097  -0.001496   0.438505
 Mulliken charges:
               1
     1  O   -0.817370
     2  H    0.488305
     3  C    0.169358
     4  H    0.201169
     5  C   -0.036218
     6  C   -0.233296
     7  C   -0.232087
     8  C   -0.232193
     9  C   -0.231083
    10  C   -0.240533
    11  C    0.169358
    12  C   -0.036218
    13  C   -0.233296
    14  C   -0.232087
    15  C   -0.232193
    16  C   -0.231083
    17  C   -0.240533
    18  O   -0.817370
    19  H    0.488305
    20  H    0.233733
    21  H    0.231893
    22  H    0.232089
    23  H    0.232406
    24  H    0.233828
    25  H    0.201169
    26  H    0.233733
    27  H    0.231893
    28  H    0.232089
    29  H    0.232406
    30  H    0.233828
 Sum of Mulliken charges =  -0.00000
 Mulliken charges with hydrogens summed into heavy atoms:
               1
     1  O   -0.329065
     3  C    0.370527
     5  C   -0.036218
     6  C    0.000436
     7  C   -0.000194
     8  C   -0.000104
     9  C    0.001323
    10  C   -0.006705
    11  C    0.370526
    12  C   -0.036218
    13  C    0.000436
    14  C   -0.000194
    15  C   -0.000104
    16  C    0.001323
    17  C   -0.006705
    18  O   -0.329065
 Electronic spatial extent (au):  <R**2>=           3451.5800
 Charge=             -0.0000 electrons
 Dipole moment (field-independent basis, Debye):
    X=             -0.0000    Y=             -0.2129    Z=             -0.0000  Tot=              0.2129
 Quadrupole moment (field-independent basis, Debye-Ang):
   XX=            -84.5172   YY=            -84.1847   ZZ=            -88.6793
   XY=             -0.0000   XZ=              1.1409   YZ=             -0.0000
 Traceless Quadrupole moment (field-independent basis, Debye-Ang):
   XX=              1.2766   YY=              1.6090   ZZ=             -2.8856
   XY=             -0.0000   XZ=              1.1409   YZ=             -0.0000
 Octapole moment (field-independent basis, Debye-Ang**2):
  XXX=              0.0000  YYY=             -7.5951  ZZZ=             -0.0000  XYY=              0.0001
  XXY=              9.0134  XXZ=              0.0000  XZZ=             -0.0000  YZZ=            -11.2882
  YYZ=              0.0001  XYZ=             -8.2938
 Hexadecapole moment (field-independent basis, Debye-Ang**3):
 XXXX=          -2817.5328 YYYY=          -1045.2916 ZZZZ=           -545.6176 XXXY=             -0.0001
 XXXZ=           -157.2256 YYYX=             -0.0002 YYYZ=             -0.0003 ZZZX=             35.7044
 ZZZY=             -0.0002 XXYY=           -574.6899 XXZZ=           -568.4376 YYZZ=           -260.3972
 XXYZ=             -0.0000 YYXZ=             41.6750 ZZXY=             -0.0001
 N-N= 1.064343396682D+03 E-N=-3.738952739155D+03  KE= 6.872241306348D+02
 Unable to Open any file for archive entry.
 1\1\GINC-TERPSICHORE\FOpt\RHF\6-31G(d)\C14H14O2\MASTER9\05-Feb-2024\0\
 \# HF/6-31G* scrf=smd opt\\RR Diol\\0,1\O,-0.1248404806,-1.7267379269,
 -1.7759668908\H,-0.8603549403,-1.8091218553,-2.3732463324\C,0.61797118
 11,-1.6129358736,0.4604905385\H,1.1692505362,-2.510900776,0.2039240081
 \C,1.5520251941,-0.4263322279,0.296840466\C,1.4093931559,0.7240511672,
 1.0664985124\C,2.2804622439,1.7918510192,0.9094021568\C,3.3067207392,1
 .725687726,-0.0204368345\C,3.4601987464,0.5814548941,-0.788693703\C,2.
 5917158324,-0.4868236315,-0.6258486732\C,-0.6179938907,-1.6129979879,-
 0.4603182526\C,-1.5520775126,-0.4264010593,-0.2967884712\C,-1.40947377
 29,0.7239081178,-1.0665626736\C,-2.2805694692,1.7917021758,-0.90957453
 1\C,-3.3068267283,1.7256072868,0.0202707029\C,-3.4602766452,0.58144823
 62,0.7886430408\C,-2.5917670596,-0.4868251209,0.6259062953\O,0.1248203
 248,-1.7265547095,1.7761506051\H,0.8603367511,-1.8088540515,2.37343927
 35\H,0.6221986687,0.7872474003,1.7940833006\H,2.1570538703,2.672712124
 1,1.5140610713\H,3.9830865587,2.5531227067,-0.1402454498\H,4.258648147
 2,0.5158856325,-1.5062167759\H,2.7279785988,-1.3754061085,-1.216224272
 2\H,-1.1692508224,-2.5109506018,-0.2036606068\H,-0.6222806008,0.787050
 3908,-1.7941535652\H,-2.1571827372,2.6725052787,-1.5143223497\H,-3.983
 2131682,2.5530375523,0.1399954635\H,-4.2587247496,0.515931579,1.506172
 3645\H,-2.7280079713,-1.3753513571,1.2163715828\\Version=EM64L-G16RevC
 .01\State=1-A\HF=-688.0413369\RMSD=3.531e-09\RMSF=8.191e-06\Dipole=0.0
 000015,-0.0837486,0.0000047\Quadrupole=0.9669338,1.1962676,-2.1632013,
 0.0000524,0.8148551,-0.0001376\PG=C01 [X(C14H14O2)]\\@
 The archive entry for this job was punched.


 ALL MY ATTEMPTS TO ADAPT THE THEORETICAL FOUNDATIONS OF PHYSICS
 TO THESE NEW NOTIONS FAILED COMPLETELY. IT WAS AS IF THE GROUND HAD
 BEEN PULLED OUT FROM UNDER ONE WITH NO FIRM FOUNDATION TO BE SEEN ANYWHERE,
 UPON WHICH ONE COULD HAVE BUILT.  -- A.EINSTEIN
 Job cpu time:       0 days  0 hours 25 minutes 52.7 seconds.
 Elapsed time:       0 days  0 hours 25 minutes 55.3 seconds.
 File lengths (MBytes):  RWF=    213 Int=      0 D2E=      0 Chk=     10 Scr=      1
 Normal termination of Gaussian 16 at Mon Feb  5 10:47:10 2024.
