 Entering Gaussian System, Link 0=g16
 Input=ASH.com
 Output=ASH.log
 Initial command:
 /apps/versions/2023.01/rocky8/x86_64/generic/software/Gaussian/16.B.01/g16/l1.exe "/home3/p315462/Project/evb_solvent/reactant/ASH/Gau-1125593.inp" -scrdir="/home3/p315462/Project/evb_solvent/reactant/ASH/"
 Entering Link 1 = /apps/versions/2023.01/rocky8/x86_64/generic/software/Gaussian/16.B.01/g16/l1.exe PID=   1125594.
  
 Copyright (c) 1988-2017, Gaussian, Inc.  All Rights Reserved.
  
 This is part of the Gaussian(R) 16 program.  It is based on
 the Gaussian(R) 09 system (copyright 2009, Gaussian, Inc.),
 the Gaussian(R) 03 system (copyright 2003, Gaussian, Inc.),
 the Gaussian(R) 98 system (copyright 1998, Gaussian, Inc.),
 the Gaussian(R) 94 system (copyright 1995, Gaussian, Inc.),
 the Gaussian 92(TM) system (copyright 1992, Gaussian, Inc.),
 the Gaussian 90(TM) system (copyright 1990, Gaussian, Inc.),
 the Gaussian 88(TM) system (copyright 1988, Gaussian, Inc.),
 the Gaussian 86(TM) system (copyright 1986, Carnegie Mellon
 University), and the Gaussian 82(TM) system (copyright 1983,
 Carnegie Mellon University). Gaussian is a federally registered
 trademark of Gaussian, Inc.
  
 This software contains proprietary and confidential information,
 including trade secrets, belonging to Gaussian, Inc.
  
 This software is provided under written license and may be
 used, copied, transmitted, or stored only in accord with that
 written license.
  
 The following legend is applicable only to US Government
 contracts under FAR:
  
                    RESTRICTED RIGHTS LEGEND
  
 Use, reproduction and disclosure by the US Government is
 subject to restrictions as set forth in subparagraphs (a)
 and (c) of the Commercial Computer Software - Restricted
 Rights clause in FAR 52.227-19.
  
 Gaussian, Inc.
 340 Quinnipiac St., Bldg. 40, Wallingford CT 06492
  
  
 ---------------------------------------------------------------
 Warning -- This program may not be used in any manner that
 competes with the business of Gaussian, Inc. or will provide
 assistance to any competitor of Gaussian, Inc.  The licensee
 of this program is prohibited from giving any competitor of
 Gaussian, Inc. access to this program.  By using this program,
 the user acknowledges that Gaussian, Inc. is engaged in the
 business of creating and licensing software in the field of
 computational chemistry and represents and warrants to the
 licensee that it is not a competitor of Gaussian, Inc. and that
 it will not use this program in any manner prohibited above.
 ---------------------------------------------------------------
  

 Cite this work as:
 Gaussian 16, Revision B.01,
 M. J. Frisch, G. W. Trucks, H. B. Schlegel, G. E. Scuseria, 
 M. A. Robb, J. R. Cheeseman, G. Scalmani, V. Barone, 
 G. A. Petersson, H. Nakatsuji, X. Li, M. Caricato, A. V. Marenich, 
 J. Bloino, B. G. Janesko, R. Gomperts, B. Mennucci, H. P. Hratchian, 
 J. V. Ortiz, A. F. Izmaylov, J. L. Sonnenberg, D. Williams-Young, 
 F. Ding, F. Lipparini, F. Egidi, J. Goings, B. Peng, A. Petrone, 
 T. Henderson, D. Ranasinghe, V. G. Zakrzewski, J. Gao, N. Rega, 
 G. Zheng, W. Liang, M. Hada, M. Ehara, K. Toyota, R. Fukuda, 
 J. Hasegawa, M. Ishida, T. Nakajima, Y. Honda, O. Kitao, H. Nakai, 
 T. Vreven, K. Throssell, J. A. Montgomery, Jr., J. E. Peralta, 
 F. Ogliaro, M. J. Bearpark, J. J. Heyd, E. N. Brothers, K. N. Kudin, 
 V. N. Staroverov, T. A. Keith, R. Kobayashi, J. Normand, 
 K. Raghavachari, A. P. Rendell, J. C. Burant, S. S. Iyengar, 
 J. Tomasi, M. Cossi, J. M. Millam, M. Klene, C. Adamo, R. Cammi, 
 J. W. Ochterski, R. L. Martin, K. Morokuma, O. Farkas, 
 J. B. Foresman, and D. J. Fox, Gaussian, Inc., Wallingford CT, 2016.
 
 ******************************************
 Gaussian 16:  ES64L-G16RevB.01 20-Dec-2017
                27-Mar-2024 
 ******************************************
 %Mem=8192MB
 %NProcShared=8
 Will use up to    8 processors via shared memory.
 %chk=098457434.chk
 ----------------------------------
 #P B3LYP/6-31g* Opt=(MaxCycle=900)
 ----------------------------------
 1/6=900,18=20,19=15,26=3,38=1/1,3;
 2/9=110,12=2,17=6,18=5,40=1/2;
 3/5=1,6=6,7=1,11=2,25=1,30=1,71=1,74=-5/1,2,3;
 4//1;
 5/5=2,38=5/2;
 6/7=2,8=2,9=2,10=2,28=1/1;
 7//1,2,3,16;
 1/6=900,18=20,19=15,26=3/3(2);
 2/9=110/2;
 99//99;
 2/9=110/2;
 3/5=1,6=6,7=1,11=2,25=1,30=1,71=1,74=-5/1,2,3;
 4/5=5,16=3,69=1/1;
 5/5=2,38=5/2;
 7//1,2,3,16;
 1/6=900,18=20,19=15,26=3/3(-5);
 2/9=110/2;
 6/7=2,8=2,9=2,10=2,19=2,28=1/1;
 99/9=1/99;
 Leave Link    1 at Wed Mar 27 13:54:09 2024, MaxMem=  1073741824 cpu:               0.8 elap:               0.4
 (Enter /apps/versions/2023.01/rocky8/x86_64/generic/software/Gaussian/16.B.01/g16/l101.exe)
 --------------------
 Protonated Aspartate
 --------------------
 Symbolic Z-matrix:
 Charge =  0 Multiplicity = 1
 C                     0.388    -4.602    -1.62 
 H                     0.236    -5.655    -1.851 
 H                     1.028    -4.499    -0.738 
 H                     0.905    -4.111    -2.45 
 C                    -0.952    -3.943    -1.381 
 O                    -2.013    -4.535    -1.484 
 O                    -0.935    -2.649    -1.05 
 H                    -0.017    -2.267    -0.941 
 
 ITRead=  0  0  0  0  0  0  0  0
 MicOpt= -1 -1 -1 -1 -1 -1 -1 -1
 NAtoms=      8 NQM=        8 NQMF=       0 NMMI=      0 NMMIF=      0
                NMic=       0 NMicF=      0.
                    Isotopes and Nuclear Properties:
 (Nuclear quadrupole moments (NQMom) in fm**2, nuclear magnetic moments (NMagM)
  in nuclear magnetons)

  Atom         1           2           3           4           5           6           7           8
 IAtWgt=          12           1           1           1          12          16          16           1
 AtmWgt=  12.0000000   1.0078250   1.0078250   1.0078250  12.0000000  15.9949146  15.9949146   1.0078250
 NucSpn=           0           1           1           1           0           0           0           1
 AtZEff=  -0.0000000  -0.0000000  -0.0000000  -0.0000000  -0.0000000  -0.0000000  -0.0000000  -0.0000000
 NQMom=    0.0000000   0.0000000   0.0000000   0.0000000   0.0000000   0.0000000   0.0000000   0.0000000
 NMagM=    0.0000000   2.7928460   2.7928460   2.7928460   0.0000000   0.0000000   0.0000000   2.7928460
 AtZNuc=   6.0000000   1.0000000   1.0000000   1.0000000   6.0000000   8.0000000   8.0000000   1.0000000
 Leave Link  101 at Wed Mar 27 13:54:13 2024, MaxMem=  1073741824 cpu:               6.3 elap:               3.1
 (Enter /apps/versions/2023.01/rocky8/x86_64/generic/software/Gaussian/16.B.01/g16/l103.exe)

 GradGradGradGradGradGradGradGradGradGradGradGradGradGradGradGradGradGrad
 Berny optimization.
 Initialization pass.
                           ----------------------------
                           !    Initial Parameters    !
                           ! (Angstroms and Degrees)  !
 --------------------------                            --------------------------
 ! Name  Definition              Value          Derivative Info.                !
 --------------------------------------------------------------------------------
 ! R1    R(1,2)                  1.0887         estimate D2E/DX2                !
 ! R2    R(1,3)                  1.0946         estimate D2E/DX2                !
 ! R3    R(1,4)                  1.0942         estimate D2E/DX2                !
 ! R4    R(1,5)                  1.5123         estimate D2E/DX2                !
 ! R5    R(5,6)                  1.2193         estimate D2E/DX2                !
 ! R6    R(5,7)                  1.3358         estimate D2E/DX2                !
 ! R7    R(7,8)                  1.0003         estimate D2E/DX2                !
 ! A1    A(2,1,3)              110.0973         estimate D2E/DX2                !
 ! A2    A(2,1,4)              109.8181         estimate D2E/DX2                !
 ! A3    A(2,1,5)              109.3475         estimate D2E/DX2                !
 ! A4    A(3,1,4)              107.0217         estimate D2E/DX2                !
 ! A5    A(3,1,5)              110.471          estimate D2E/DX2                !
 ! A6    A(4,1,5)              110.06           estimate D2E/DX2                !
 ! A7    A(1,5,6)              123.0996         estimate D2E/DX2                !
 ! A8    A(1,5,7)              116.7451         estimate D2E/DX2                !
 ! A9    A(6,5,7)              120.1544         estimate D2E/DX2                !
 ! A10   A(5,7,8)              114.1194         estimate D2E/DX2                !
 ! D1    D(2,1,5,6)             -2.037          estimate D2E/DX2                !
 ! D2    D(2,1,5,7)            178.3196         estimate D2E/DX2                !
 ! D3    D(3,1,5,6)           -123.3563         estimate D2E/DX2                !
 ! D4    D(3,1,5,7)             57.0002         estimate D2E/DX2                !
 ! D5    D(4,1,5,6)            118.6768         estimate D2E/DX2                !
 ! D6    D(4,1,5,7)            -60.9667         estimate D2E/DX2                !
 ! D7    D(1,5,7,8)             -3.5823         estimate D2E/DX2                !
 ! D8    D(6,5,7,8)            176.7631         estimate D2E/DX2                !
 --------------------------------------------------------------------------------
 Trust Radius=3.00D-01 FncErr=1.00D-07 GrdErr=1.00D-06 EigMax=2.50D+02 EigMin=1.00D-04
 Number of steps in this run=    100 maximum allowed number of steps=    100.
 GradGradGradGradGradGradGradGradGradGradGradGradGradGradGradGradGradGrad

 Leave Link  103 at Wed Mar 27 13:54:13 2024, MaxMem=  1073741824 cpu:               0.1 elap:               0.0
 (Enter /apps/versions/2023.01/rocky8/x86_64/generic/software/Gaussian/16.B.01/g16/l202.exe)
                          Input orientation:                          
 ---------------------------------------------------------------------
 Center     Atomic      Atomic             Coordinates (Angstroms)
 Number     Number       Type             X           Y           Z
 ---------------------------------------------------------------------
      1          6           0        0.388000   -4.602000   -1.620000
      2          1           0        0.236000   -5.655000   -1.851000
      3          1           0        1.028000   -4.499000   -0.738000
      4          1           0        0.905000   -4.111000   -2.450000
      5          6           0       -0.952000   -3.943000   -1.381000
      6          8           0       -2.013000   -4.535000   -1.484000
      7          8           0       -0.935000   -2.649000   -1.050000
      8          1           0       -0.017000   -2.267000   -0.941000
 ---------------------------------------------------------------------
                    Distance matrix (angstroms):
                    1          2          3          4          5
     1  C    0.000000
     2  H    1.088703   0.000000
     3  H    1.094593   1.789516   0.000000
     4  H    1.094198   1.786141   1.759721   0.000000
     5  C    1.512284   2.136162   2.154759   2.149287   0.000000
     6  O    2.405782   2.539112   3.131372   3.102846   1.219342
     7  O    2.426816   3.323985   2.715366   2.735515   1.335772
     8  H    2.465216   3.517194   2.472864   2.554897   1.968959
                    6          7          8
     6  O    0.000000
     7  O    2.215273   0.000000
     8  H    3.069640   1.000264   0.000000
 Stoichiometry    C2H4O2
 Framework group  C1[X(C2H4O2)]
 Deg. of freedom    18
 Full point group                 C1      NOp   1
 Largest Abelian subgroup         C1      NOp   1
 Largest concise Abelian subgroup C1      NOp   1
                         Standard orientation:                         
 ---------------------------------------------------------------------
 Center     Atomic      Atomic             Coordinates (Angstroms)
 Number     Number       Type             X           Y           Z
 ---------------------------------------------------------------------
      1          6           0        1.370605   -0.059486    0.000631
      2          1           0        1.851826    0.916386   -0.036431
      3          1           0        1.683853   -0.666054   -0.854989
      4          1           0        1.683211   -0.593221    0.903224
      5          6           0       -0.130764    0.121864   -0.000977
      6          8           0       -0.669343    1.215813   -0.002613
      7          8           0       -0.870605   -0.990279    0.006891
      8          1           0       -0.338355   -1.835650   -0.043952
 ---------------------------------------------------------------------
 Rotational constants (GHZ):          10.9676381           9.6271253           5.2947759
 Leave Link  202 at Wed Mar 27 13:54:13 2024, MaxMem=  1073741824 cpu:               0.0 elap:               0.0
 (Enter /apps/versions/2023.01/rocky8/x86_64/generic/software/Gaussian/16.B.01/g16/l301.exe)
 Standard basis: 6-31G(d) (6D, 7F)
 Ernie: Thresh=  0.10000D-02 Tol=  0.10000D-05 Strict=F.
 There are    68 symmetry adapted cartesian basis functions of A   symmetry.
 There are    68 symmetry adapted basis functions of A   symmetry.
    68 basis functions,   128 primitive gaussians,    68 cartesian basis functions
    16 alpha electrons       16 beta electrons
       nuclear repulsion energy       120.6527465000 Hartrees.
 IExCor=  402 DFT=T Ex+Corr=B3LYP ExCW=0 ScaHFX=  0.200000
 ScaDFX=  0.800000  0.720000  1.000000  0.810000 ScalE2=  1.000000  1.000000
 IRadAn=      5 IRanWt=     -1 IRanGd=            0 ICorTp=0 IEmpDi=  4
 NAtoms=    8 NActive=    8 NUniq=    8 SFac= 1.00D+00 NAtFMM=   60 NAOKFM=F Big=F
 Integral buffers will be    131072 words long.
 Raffenetti 2 integral format.
 Two-electron integral symmetry is turned on.
 Leave Link  301 at Wed Mar 27 13:54:13 2024, MaxMem=  1073741824 cpu:               0.5 elap:               0.2
 (Enter /apps/versions/2023.01/rocky8/x86_64/generic/software/Gaussian/16.B.01/g16/l302.exe)
 NPDir=0 NMtPBC=     1 NCelOv=     1 NCel=       1 NClECP=     1 NCelD=      1
         NCelK=      1 NCelE2=     1 NClLst=     1 CellRange=     0.0.
 One-electron integrals computed using PRISM.
 One-electron integral symmetry used in STVInt
 NBasis=    68 RedAO= T EigKep=  4.63D-03  NBF=    68
 NBsUse=    68 1.00D-06 EigRej= -1.00D+00 NBFU=    68
 Precomputing XC quadrature grid using
 IXCGrd= 4 IRadAn=           5 IRanWt=          -1 IRanGd=           0 AccXCQ= 0.00D+00.
 Generated NRdTot=       0 NPtTot=           0 NUsed=           0 NTot=          32
 NSgBfM=    68    68    68    68    68 MxSgAt=     8 MxSgA2=     8.
 Leave Link  302 at Wed Mar 27 13:54:14 2024, MaxMem=  1073741824 cpu:               1.4 elap:               0.6
 (Enter /apps/versions/2023.01/rocky8/x86_64/generic/software/Gaussian/16.B.01/g16/l303.exe)
 DipDrv:  MaxL=1.
 Leave Link  303 at Wed Mar 27 13:54:14 2024, MaxMem=  1073741824 cpu:               0.5 elap:               0.2
 (Enter /apps/versions/2023.01/rocky8/x86_64/generic/software/Gaussian/16.B.01/g16/l401.exe)
 ExpMin= 1.61D-01 ExpMax= 5.48D+03 ExpMxC= 8.25D+02 IAcc=3 IRadAn=         5 AccDes= 0.00D+00
 Harris functional with IExCor=  402 and IRadAn=       5 diagonalized for initial guess.
 HarFok:  IExCor=  402 AccDes= 0.00D+00 IRadAn=         5 IDoV= 1 UseB2=F ITyADJ=14
 ICtDFT=  3500011 ScaDFX=  1.000000  1.000000  1.000000  1.000000
 FoFCou: FMM=F IPFlag=           0 FMFlag=      100000 FMFlg1=           0
         NFxFlg=           0 DoJE=T BraDBF=F KetDBF=T FulRan=T
         wScrn=  0.000000 ICntrl=       500 IOpCl=  0 I1Cent=   200000004 NGrid=           0
         NMat0=    1 NMatS0=      1 NMatT0=    0 NMatD0=    1 NMtDS0=    0 NMtDT0=    0
 Petite list used in FoFCou.
 Harris En= -229.114766201167    
 JPrj=0 DoOrth=F DoCkMO=F.
 Leave Link  401 at Wed Mar 27 13:54:15 2024, MaxMem=  1073741824 cpu:               2.2 elap:               1.1
 (Enter /apps/versions/2023.01/rocky8/x86_64/generic/software/Gaussian/16.B.01/g16/l502.exe)
 Keep R1 ints in memory in canonical form, NReq=9900287.
 FoFCou: FMM=F IPFlag=           0 FMFlag=           0 FMFlg1=           0
         NFxFlg=           0 DoJE=F BraDBF=F KetDBF=F FulRan=T
         wScrn=  0.000000 ICntrl=       600 IOpCl=  0 I1Cent=           0 NGrid=           0
         NMat0=    1 NMatS0=   2346 NMatT0=    0 NMatD0=    1 NMtDS0=    0 NMtDT0=    0
 Symmetry not used in FoFCou.
 Two-electron integral symmetry not used.
 Closed shell SCF:
 Using DIIS extrapolation, IDIIS=  1040.
 NGot=  1073741824 LenX=  1070978087 LenY=  1070973022
 Requested convergence on RMS density matrix=1.00D-08 within 128 cycles.
 Requested convergence on MAX density matrix=1.00D-06.
 Requested convergence on             energy=1.00D-06.
 No special actions if energy rises.
 Integral accuracy reduced to 1.0D-05 until final iterations.

 Cycle   1  Pass 0  IDiag  1:
 E= -228.911311132031    
 DIIS: error= 4.34D-02 at cycle   1 NSaved=   1.
 NSaved= 1 IEnMin= 1 EnMin= -228.911311132031     IErMin= 1 ErrMin= 4.34D-02
 ErrMax= 4.34D-02  0.00D+00 EMaxC= 1.00D-01 BMatC= 1.90D-01 BMatP= 1.90D-01
 IDIUse=3 WtCom= 5.66D-01 WtEn= 4.34D-01
 Coeff-Com:  0.100D+01
 Coeff-En:   0.100D+01
 Coeff:      0.100D+01
 Gap=     0.148 Goal=   None    Shift=    0.000
 GapD=    0.148 DampG=1.000 DampE=0.500 DampFc=0.5000 IDamp=-1.
 Damping current iteration by 5.00D-01
 RMSDP=1.53D-02 MaxDP=2.28D-01              OVMax= 3.22D-01

 Cycle   2  Pass 0  IDiag  1:
 E= -228.941871476039     Delta-E=       -0.030560344009 Rises=F Damp=T
 DIIS: error= 1.79D-02 at cycle   2 NSaved=   2.
 NSaved= 2 IEnMin= 2 EnMin= -228.941871476039     IErMin= 2 ErrMin= 1.79D-02
 ErrMax= 1.79D-02  0.00D+00 EMaxC= 1.00D-01 BMatC= 3.53D-02 BMatP= 1.90D-01
 IDIUse=3 WtCom= 8.21D-01 WtEn= 1.79D-01
 Coeff-Com:  0.259D+00 0.741D+00
 Coeff-En:   0.406D+00 0.594D+00
 Coeff:      0.285D+00 0.715D+00
 Gap=     0.306 Goal=   None    Shift=    0.000
 RMSDP=4.76D-03 MaxDP=7.59D-02 DE=-3.06D-02 OVMax= 2.24D-01

 Cycle   3  Pass 0  IDiag  1:
 E= -229.046023845691     Delta-E=       -0.104152369652 Rises=F Damp=F
 DIIS: error= 1.53D-02 at cycle   3 NSaved=   3.
 NSaved= 3 IEnMin= 3 EnMin= -229.046023845691     IErMin= 3 ErrMin= 1.53D-02
 ErrMax= 1.53D-02  0.00D+00 EMaxC= 1.00D-01 BMatC= 2.84D-02 BMatP= 3.53D-02
 IDIUse=3 WtCom= 8.47D-01 WtEn= 1.53D-01
 Coeff-Com:  0.125D+00 0.467D+00 0.408D+00
 Coeff-En:   0.000D+00 0.000D+00 0.100D+01
 Coeff:      0.106D+00 0.396D+00 0.498D+00
 Gap=     0.273 Goal=   None    Shift=    0.000
 RMSDP=2.64D-03 MaxDP=4.12D-02 DE=-1.04D-01 OVMax= 8.10D-02

 Cycle   4  Pass 0  IDiag  1:
 E= -229.066543087667     Delta-E=       -0.020519241976 Rises=F Damp=F
 DIIS: error= 6.65D-03 at cycle   4 NSaved=   4.
 NSaved= 4 IEnMin= 4 EnMin= -229.066543087667     IErMin= 4 ErrMin= 6.65D-03
 ErrMax= 6.65D-03  0.00D+00 EMaxC= 1.00D-01 BMatC= 4.44D-03 BMatP= 2.84D-02
 IDIUse=3 WtCom= 9.33D-01 WtEn= 6.65D-02
 Coeff-Com:  0.258D-01 0.682D-01 0.286D+00 0.620D+00
 Coeff-En:   0.000D+00 0.000D+00 0.139D+00 0.861D+00
 Coeff:      0.241D-01 0.637D-01 0.276D+00 0.636D+00
 Gap=     0.277 Goal=   None    Shift=    0.000
 RMSDP=8.48D-04 MaxDP=1.42D-02 DE=-2.05D-02 OVMax= 2.54D-02

 Cycle   5  Pass 0  IDiag  1:
 E= -229.069585587648     Delta-E=       -0.003042499981 Rises=F Damp=F
 DIIS: error= 1.72D-03 at cycle   5 NSaved=   5.
 NSaved= 5 IEnMin= 5 EnMin= -229.069585587648     IErMin= 5 ErrMin= 1.72D-03
 ErrMax= 1.72D-03  0.00D+00 EMaxC= 1.00D-01 BMatC= 3.21D-04 BMatP= 4.44D-03
 IDIUse=3 WtCom= 9.83D-01 WtEn= 1.72D-02
 Coeff-Com:  0.405D-02-0.460D-02 0.124D+00 0.383D+00 0.494D+00
 Coeff-En:   0.000D+00 0.000D+00 0.000D+00 0.000D+00 0.100D+01
 Coeff:      0.398D-02-0.452D-02 0.122D+00 0.376D+00 0.502D+00
 Gap=     0.277 Goal=   None    Shift=    0.000
 RMSDP=2.24D-04 MaxDP=3.92D-03 DE=-3.04D-03 OVMax= 5.08D-03

 Cycle   6  Pass 0  IDiag  1:
 E= -229.069837913613     Delta-E=       -0.000252325966 Rises=F Damp=F
 DIIS: error= 2.66D-04 at cycle   6 NSaved=   6.
 NSaved= 6 IEnMin= 6 EnMin= -229.069837913613     IErMin= 6 ErrMin= 2.66D-04
 ErrMax= 2.66D-04  0.00D+00 EMaxC= 1.00D-01 BMatC= 7.10D-06 BMatP= 3.21D-04
 IDIUse=3 WtCom= 9.97D-01 WtEn= 2.66D-03
 Coeff-Com:  0.916D-03-0.488D-02 0.282D-01 0.820D-01 0.176D+00 0.718D+00
 Coeff-En:   0.000D+00 0.000D+00 0.000D+00 0.000D+00 0.000D+00 0.100D+01
 Coeff:      0.914D-03-0.486D-02 0.282D-01 0.818D-01 0.175D+00 0.719D+00
 Gap=     0.278 Goal=   None    Shift=    0.000
 RMSDP=3.39D-05 MaxDP=4.14D-04 DE=-2.52D-04 OVMax= 6.55D-04

 Cycle   7  Pass 0  IDiag  1:
 E= -229.069843387244     Delta-E=       -0.000005473631 Rises=F Damp=F
 DIIS: error= 5.55D-05 at cycle   7 NSaved=   7.
 NSaved= 7 IEnMin= 7 EnMin= -229.069843387244     IErMin= 7 ErrMin= 5.55D-05
 ErrMax= 5.55D-05  0.00D+00 EMaxC= 1.00D-01 BMatC= 3.52D-07 BMatP= 7.10D-06
 IDIUse=1 WtCom= 1.00D+00 WtEn= 0.00D+00
 Coeff-Com:  0.347D-03-0.201D-02 0.686D-02 0.163D-01 0.549D-01 0.310D+00
 Coeff-Com:  0.614D+00
 Coeff:      0.347D-03-0.201D-02 0.686D-02 0.163D-01 0.549D-01 0.310D+00
 Coeff:      0.614D+00
 Gap=     0.278 Goal=   None    Shift=    0.000
 RMSDP=1.08D-05 MaxDP=1.16D-04 DE=-5.47D-06 OVMax= 1.80D-04

 Cycle   8  Pass 0  IDiag  1:
 E= -229.069843702375     Delta-E=       -0.000000315131 Rises=F Damp=F
 DIIS: error= 9.12D-06 at cycle   8 NSaved=   8.
 NSaved= 8 IEnMin= 8 EnMin= -229.069843702375     IErMin= 8 ErrMin= 9.12D-06
 ErrMax= 9.12D-06  0.00D+00 EMaxC= 1.00D-01 BMatC= 1.04D-08 BMatP= 3.52D-07
 IDIUse=1 WtCom= 1.00D+00 WtEn= 0.00D+00
 Coeff-Com:  0.405D-04-0.109D-03-0.341D-03-0.213D-02-0.123D-02-0.392D-02
 Coeff-Com:  0.108D+00 0.900D+00
 Coeff:      0.405D-04-0.109D-03-0.341D-03-0.213D-02-0.123D-02-0.392D-02
 Coeff:      0.108D+00 0.900D+00
 Gap=     0.278 Goal=   None    Shift=    0.000
 RMSDP=1.76D-06 MaxDP=2.03D-05 DE=-3.15D-07 OVMax= 3.27D-05

 Initial convergence to 1.0D-05 achieved.  Increase integral accuracy.
 Cycle   9  Pass 1  IDiag  1:
 E= -229.069847200048     Delta-E=       -0.000003497673 Rises=F Damp=F
 DIIS: error= 4.08D-06 at cycle   1 NSaved=   1.
 NSaved= 1 IEnMin= 1 EnMin= -229.069847200048     IErMin= 1 ErrMin= 4.08D-06
 ErrMax= 4.08D-06  0.00D+00 EMaxC= 1.00D-01 BMatC= 7.77D-10 BMatP= 7.77D-10
 IDIUse=1 WtCom= 1.00D+00 WtEn= 0.00D+00
 Coeff-Com:  0.100D+01
 Coeff:      0.100D+01
 Gap=     0.278 Goal=   None    Shift=    0.000
 RMSDP=1.76D-06 MaxDP=2.03D-05 DE=-3.50D-06 OVMax= 1.19D-05

 Cycle  10  Pass 1  IDiag  1:
 E= -229.069847200960     Delta-E=       -0.000000000912 Rises=F Damp=F
 DIIS: error= 9.81D-07 at cycle   2 NSaved=   2.
 NSaved= 2 IEnMin= 2 EnMin= -229.069847200960     IErMin= 2 ErrMin= 9.81D-07
 ErrMax= 9.81D-07  0.00D+00 EMaxC= 1.00D-01 BMatC= 6.62D-11 BMatP= 7.77D-10
 IDIUse=1 WtCom= 1.00D+00 WtEn= 0.00D+00
 Coeff-Com:  0.106D+00 0.894D+00
 Coeff:      0.106D+00 0.894D+00
 Gap=     0.278 Goal=   None    Shift=    0.000
 RMSDP=2.79D-07 MaxDP=3.84D-06 DE=-9.12D-10 OVMax= 8.00D-06

 Cycle  11  Pass 1  IDiag  1:
 E= -229.069847200900     Delta-E=        0.000000000060 Rises=F Damp=F
 DIIS: error= 1.41D-06 at cycle   3 NSaved=   3.
 NSaved= 3 IEnMin= 2 EnMin= -229.069847200960     IErMin= 2 ErrMin= 9.81D-07
 ErrMax= 1.41D-06  0.00D+00 EMaxC= 1.00D-01 BMatC= 1.56D-10 BMatP= 6.62D-11
 IDIUse=1 WtCom= 1.00D+00 WtEn= 0.00D+00
 Coeff-Com:  0.645D-02 0.611D+00 0.383D+00
 Coeff:      0.645D-02 0.611D+00 0.383D+00
 Gap=     0.278 Goal=   None    Shift=    0.000
 RMSDP=1.66D-07 MaxDP=2.94D-06 DE= 6.00D-11 OVMax= 5.32D-06

 Cycle  12  Pass 1  IDiag  1:
 E= -229.069847201018     Delta-E=       -0.000000000118 Rises=F Damp=F
 DIIS: error= 1.94D-07 at cycle   4 NSaved=   4.
 NSaved= 4 IEnMin= 4 EnMin= -229.069847201018     IErMin= 4 ErrMin= 1.94D-07
 ErrMax= 1.94D-07  0.00D+00 EMaxC= 1.00D-01 BMatC= 5.14D-12 BMatP= 6.62D-11
 IDIUse=1 WtCom= 1.00D+00 WtEn= 0.00D+00
 Coeff-Com: -0.920D-02 0.219D+00 0.196D+00 0.594D+00
 Coeff:     -0.920D-02 0.219D+00 0.196D+00 0.594D+00
 Gap=     0.278 Goal=   None    Shift=    0.000
 RMSDP=3.17D-08 MaxDP=5.60D-07 DE=-1.18D-10 OVMax= 7.09D-07

 Cycle  13  Pass 1  IDiag  1:
 E= -229.069847201021     Delta-E=       -0.000000000004 Rises=F Damp=F
 DIIS: error= 8.93D-08 at cycle   5 NSaved=   5.
 NSaved= 5 IEnMin= 5 EnMin= -229.069847201021     IErMin= 5 ErrMin= 8.93D-08
 ErrMax= 8.93D-08  0.00D+00 EMaxC= 1.00D-01 BMatC= 6.07D-13 BMatP= 5.14D-12
 IDIUse=1 WtCom= 1.00D+00 WtEn= 0.00D+00
 Coeff-Com: -0.632D-02 0.911D-01 0.898D-01 0.346D+00 0.480D+00
 Coeff:     -0.632D-02 0.911D-01 0.898D-01 0.346D+00 0.480D+00
 Gap=     0.278 Goal=   None    Shift=    0.000
 RMSDP=8.07D-09 MaxDP=1.45D-07 DE=-3.52D-12 OVMax= 1.78D-07

 SCF Done:  E(RB3LYP) =  -229.069847201     A.U. after   13 cycles
            NFock= 13  Conv=0.81D-08     -V/T= 2.0090
 KE= 2.270317528923D+02 PE=-7.781986858264D+02 EE= 2.014443392330D+02
 Leave Link  502 at Wed Mar 27 13:54:20 2024, MaxMem=  1073741824 cpu:               9.9 elap:               5.0
 (Enter /apps/versions/2023.01/rocky8/x86_64/generic/software/Gaussian/16.B.01/g16/l601.exe)
 Copying SCF densities to generalized density rwf, IOpCl= 0 IROHF=0.

 **********************************************************************

            Population analysis using the SCF Density.

 **********************************************************************

 Orbital symmetries:
       Occupied  (A) (A) (A) (A) (A) (A) (A) (A) (A) (A) (A) (A)
                 (A) (A) (A) (A)
       Virtual   (A) (A) (A) (A) (A) (A) (A) (A) (A) (A) (A) (A)
                 (A) (A) (A) (A) (A) (A) (A) (A) (A) (A) (A) (A)
                 (A) (A) (A) (A) (A) (A) (A) (A) (A) (A) (A) (A)
                 (A) (A) (A) (A) (A) (A) (A) (A) (A) (A) (A) (A)
                 (A) (A) (A) (A)
 The electronic state is 1-A.
 Alpha  occ. eigenvalues --  -19.20342 -19.12824 -10.32161 -10.20804  -1.10215
 Alpha  occ. eigenvalues --   -1.00851  -0.75702  -0.62556  -0.51524  -0.47129
 Alpha  occ. eigenvalues --   -0.46231  -0.41557  -0.39883  -0.37299  -0.31156
 Alpha  occ. eigenvalues --   -0.26647
 Alpha virt. eigenvalues --    0.01113   0.03653   0.11509   0.14862   0.15772
 Alpha virt. eigenvalues --    0.20327   0.31358   0.34304   0.51753   0.53012
 Alpha virt. eigenvalues --    0.57563   0.60050   0.62215   0.65874   0.73266
 Alpha virt. eigenvalues --    0.78356   0.83653   0.86274   0.89656   0.92450
 Alpha virt. eigenvalues --    0.92773   0.97708   1.03735   1.08517   1.12756
 Alpha virt. eigenvalues --    1.34800   1.37165   1.41283   1.46752   1.56933
 Alpha virt. eigenvalues --    1.71461   1.72639   1.80933   1.81300   1.83445
 Alpha virt. eigenvalues --    1.89479   1.97589   2.04049   2.17995   2.20055
 Alpha virt. eigenvalues --    2.33069   2.44667   2.46146   2.63153   2.68895
 Alpha virt. eigenvalues --    2.80294   2.95301   3.06664   3.81307   4.03007
 Alpha virt. eigenvalues --    4.12393   4.41583
          Condensed to atoms (all electrons):
               1          2          3          4          5          6
     1  C    5.380909   0.354406   0.347918   0.351073   0.321930  -0.090518
     2  H    0.354406   0.492858  -0.019491  -0.019241  -0.018409   0.005531
     3  H    0.347918  -0.019491   0.548387  -0.030316  -0.021713   0.001343
     4  H    0.351073  -0.019241  -0.030316   0.540432  -0.022140   0.001000
     5  C    0.321930  -0.018409  -0.021713  -0.022140   4.297032   0.612010
     6  O   -0.090518   0.005531   0.001343   0.001000   0.612010   7.984210
     7  O   -0.108569   0.003700   0.002954   0.002827   0.256917  -0.077411
     8  H    0.003156  -0.000018   0.000391  -0.000118  -0.011825   0.004876
               7          8
     1  C   -0.108569   0.003156
     2  H    0.003700  -0.000018
     3  H    0.002954   0.000391
     4  H    0.002827  -0.000118
     5  C    0.256917  -0.011825
     6  O   -0.077411   0.004876
     7  O    8.244877   0.216560
     8  H    0.216560   0.377645
 Mulliken charges:
               1
     1  C   -0.560306
     2  H    0.200663
     3  H    0.170526
     4  H    0.176483
     5  C    0.586197
     6  O   -0.441041
     7  O   -0.541857
     8  H    0.409333
 Sum of Mulliken charges =  -0.00000
 Mulliken charges with hydrogens summed into heavy atoms:
               1
     1  C   -0.012634
     5  C    0.586197
     6  O   -0.441041
     7  O   -0.132523
 Electronic spatial extent (au):  <R**2>=            253.9524
 Charge=             -0.0000 electrons
 Dipole moment (field-independent basis, Debye):
    X=              2.9745    Y=             -3.2987    Z=             -0.0686  Tot=              4.4423
 Quadrupole moment (field-independent basis, Debye-Ang):
   XX=            -24.9913   YY=            -22.0822   ZZ=            -22.7810
   XY=              0.8182   XZ=              0.0520   YZ=              0.1788
 Traceless Quadrupole moment (field-independent basis, Debye-Ang):
   XX=             -1.7064   YY=              1.2026   ZZ=              0.5038
   XY=              0.8182   XZ=              0.0520   YZ=              0.1788
 Octapole moment (field-independent basis, Debye-Ang**2):
  XXX=             -1.3534  YYY=            -14.3285  ZZZ=              0.0756  XYY=              1.1668
  XXY=              0.8392  XXZ=              0.0287  XZZ=             -1.0991  YZZ=             -0.6001
  YYZ=             -0.3994  XYZ=             -0.0988
 Hexadecapole moment (field-independent basis, Debye-Ang**3):
 XXXX=           -161.3715 YYYY=            -99.9884 ZZZZ=            -25.4504 XXXY=              1.5740
 XXXZ=              0.0438 YYYX=              6.3377 YYYZ=              0.6751 ZZZX=              0.2020
 ZZZY=              0.0272 XXYY=            -46.4771 XXZZ=            -29.9116 YYZZ=            -23.5156
 XXYZ=             -0.0146 YYXZ=              0.0056 ZZXY=             -1.1074
 N-N= 1.206527465000D+02 E-N=-7.781986877489D+02  KE= 2.270317528923D+02
 No NMR shielding tensors so no spin-rotation constants.
 Leave Link  601 at Wed Mar 27 13:54:21 2024, MaxMem=  1073741824 cpu:               1.0 elap:               0.4
 (Enter /apps/versions/2023.01/rocky8/x86_64/generic/software/Gaussian/16.B.01/g16/l701.exe)
 ... and contract with generalized density number  0.
 Compute integral first derivatives.
 Leave Link  701 at Wed Mar 27 13:54:21 2024, MaxMem=  1073741824 cpu:               1.2 elap:               0.6
 (Enter /apps/versions/2023.01/rocky8/x86_64/generic/software/Gaussian/16.B.01/g16/l702.exe)
 L702 exits ... SP integral derivatives will be done elsewhere.
 Leave Link  702 at Wed Mar 27 13:54:21 2024, MaxMem=  1073741824 cpu:               0.4 elap:               0.2
 (Enter /apps/versions/2023.01/rocky8/x86_64/generic/software/Gaussian/16.B.01/g16/l703.exe)
 Integral derivatives from FoFJK, PRISM(SPDF).
 Compute integral first derivatives, UseDBF=F ICtDFT=           0.
 Calling FoFJK, ICntrl=      2127 FMM=F ISym2X=0 I1Cent= 0 IOpClX= 0 NMat=1 NMatS=1 NMatT=0.
 FoFJK:  IHMeth= 1 ICntrl=    2127 DoSepK=F KAlg= 0 I1Cent=           0 FoldK=F
 IRaf=         0 NMat=       1 IRICut=       1 DoRegI=T DoRafI=F ISym2E= 0 IDoP0=0 IntGTp=1.
 FoFCou: FMM=F IPFlag=           0 FMFlag=      100000 FMFlg1=         800
         NFxFlg=           0 DoJE=F BraDBF=F KetDBF=F FulRan=T
         wScrn=  0.000000 ICntrl=      2127 IOpCl=  0 I1Cent=           0 NGrid=           0
         NMat0=    1 NMatS0=      1 NMatT0=    0 NMatD0=    1 NMtDS0=    0 NMtDT0=    0
 Symmetry not used in FoFCou.
 Leave Link  703 at Wed Mar 27 13:54:24 2024, MaxMem=  1073741824 cpu:               4.4 elap:               2.1
 (Enter /apps/versions/2023.01/rocky8/x86_64/generic/software/Gaussian/16.B.01/g16/l716.exe)
 Dipole        = 1.17026610D+00-1.29781676D+00-2.69960076D-02
 ***** Axes restored to original set *****
 -------------------------------------------------------------------
 Center     Atomic                   Forces (Hartrees/Bohr)
 Number     Number              X              Y              Z
 -------------------------------------------------------------------
      1        6           0.002195546    0.003336805    0.000698640
      2        1           0.000602160   -0.000372161    0.000106993
      3        1           0.001260426   -0.001634811    0.001573798
      4        1           0.001101040   -0.000346507   -0.002305501
      5        6          -0.016629979   -0.029168799   -0.005899282
      6        8           0.015671873    0.012408536    0.001851212
      7        8           0.016862705    0.030343416    0.008848811
      8        1          -0.021063770   -0.014566479   -0.004874671
 -------------------------------------------------------------------
 Cartesian Forces:  Max     0.030343416 RMS     0.012176696
 Leave Link  716 at Wed Mar 27 13:54:24 2024, MaxMem=  1073741824 cpu:               0.3 elap:               0.1
 (Enter /apps/versions/2023.01/rocky8/x86_64/generic/software/Gaussian/16.B.01/g16/l103.exe)

 GradGradGradGradGradGradGradGradGradGradGradGradGradGradGradGradGradGrad
 Berny optimization.
 FormGI is forming the generalized inverse of G from B-inverse, IUseBI=4.
 Internal  Forces:  Max     0.025425197 RMS     0.007712051
 Search for a local minimum.
 Step number   1 out of a maximum of  100
 All quantities printed in internal units (Hartrees-Bohrs-Radians)
 RMS Force = .77121D-02 SwitMx=.10000D-02 MixMth= 1
 Mixed Optimization -- RFO/linear search
 Second derivative matrix not updated -- first step.
 ITU=  0
     Eigenvalues ---    0.00603   0.01065   0.02541   0.07314   0.07384
     Eigenvalues ---    0.16000   0.16000   0.16000   0.16000   0.25000
     Eigenvalues ---    0.25000   0.31122   0.34287   0.34332   0.34963
     Eigenvalues ---    0.47642   0.58163   0.95676
 RFO step:  Lambda=-3.26137905D-03 EMin= 6.03457677D-03
 Linear search not attempted -- first point.
 Iteration  1 RMS(Cart)=  0.02620154 RMS(Int)=  0.00101953
 Iteration  2 RMS(Cart)=  0.00094284 RMS(Int)=  0.00006040
 Iteration  3 RMS(Cart)=  0.00000140 RMS(Int)=  0.00006039
 Iteration  4 RMS(Cart)=  0.00000000 RMS(Int)=  0.00006039
 ITry= 1 IFail=0 DXMaxC= 9.31D-02 DCOld= 1.00D+10 DXMaxT= 3.00D-01 DXLimC= 3.00D+00 Rises=F
 Variable       Old X    -DE/DX   Delta X   Delta X   Delta X     New X
                                 (Linear)    (Quad)   (Total)
    R1        2.05735   0.00025   0.00000   0.00072   0.00072   2.05807
    R2        2.06848   0.00185   0.00000   0.00535   0.00535   2.07383
    R3        2.06774   0.00211   0.00000   0.00610   0.00610   2.07383
    R4        2.85780   0.00413   0.00000   0.01314   0.01314   2.87094
    R5        2.30422  -0.01982   0.00000  -0.02064  -0.02064   2.28358
    R6        2.52424   0.01622   0.00000   0.02772   0.02772   2.55197
    R7        1.89023  -0.02543   0.00000  -0.05300  -0.05300   1.83722
    A1        1.92156  -0.00145   0.00000  -0.01303  -0.01302   1.90854
    A2        1.91669  -0.00110   0.00000  -0.00951  -0.00951   1.90718
    A3        1.90847  -0.00002   0.00000  -0.00376  -0.00375   1.90473
    A4        1.86788   0.00005   0.00000   0.00749   0.00734   1.87522
    A5        1.92808   0.00135   0.00000   0.00966   0.00959   1.93767
    A6        1.92091   0.00116   0.00000   0.00926   0.00919   1.93010
    A7        2.14849   0.00473   0.00000   0.01865   0.01860   2.16709
    A8        2.03759  -0.00221   0.00000  -0.00874  -0.00879   2.02880
    A9        2.09709  -0.00253   0.00000  -0.01001  -0.01006   2.08703
   A10        1.99176  -0.01076   0.00000  -0.06593  -0.06593   1.92583
    D1       -0.03555  -0.00021   0.00000  -0.00842  -0.00846  -0.04401
    D2        3.11226   0.00005   0.00000   0.01002   0.01006   3.12233
    D3       -2.15297   0.00074   0.00000   0.00407   0.00409  -2.14888
    D4        0.99484   0.00100   0.00000   0.02251   0.02261   1.01745
    D5        2.07130  -0.00086   0.00000  -0.01676  -0.01685   2.05445
    D6       -1.06407  -0.00060   0.00000   0.00169   0.00167  -1.06240
    D7       -0.06252   0.00063   0.00000   0.01708   0.01720  -0.04532
    D8        3.08510   0.00086   0.00000   0.03484   0.03471   3.11981
         Item               Value     Threshold  Converged?
 Maximum Force            0.025425     0.000450     NO 
 RMS     Force            0.007712     0.000300     NO 
 Maximum Displacement     0.093087     0.001800     NO 
 RMS     Displacement     0.026069     0.001200     NO 
 Predicted change in Energy=-1.650861D-03
 Lowest energy point so far.  Saving SCF results.
 GradGradGradGradGradGradGradGradGradGradGradGradGradGradGradGradGradGrad

 Leave Link  103 at Wed Mar 27 13:54:24 2024, MaxMem=  1073741824 cpu:               0.1 elap:               0.1
 (Enter /apps/versions/2023.01/rocky8/x86_64/generic/software/Gaussian/16.B.01/g16/l202.exe)
                          Input orientation:                          
 ---------------------------------------------------------------------
 Center     Atomic      Atomic             Coordinates (Angstroms)
 Number     Number       Type             X           Y           Z
 ---------------------------------------------------------------------
      1          6           0        0.392241   -4.593298   -1.615963
      2          1           0        0.244717   -5.645706   -1.854238
      3          1           0        1.035597   -4.507524   -0.731049
      4          1           0        0.911511   -4.102624   -2.448994
      5          6           0       -0.959317   -3.943755   -1.372117
      6          8           0       -2.017421   -4.517077   -1.481622
      7          8           0       -0.941604   -2.634757   -1.040598
      8          1           0       -0.025723   -2.316260   -0.970420
 ---------------------------------------------------------------------
                    Distance matrix (angstroms):
                    1          2          3          4          5
     1  C    0.000000
     2  H    1.089083   0.000000
     3  H    1.097423   1.783957   0.000000
     4  H    1.097425   1.783101   1.769371   0.000000
     5  C    1.519235   2.139807   2.169905   2.164463   0.000000
     6  O    2.414606   2.555369   3.143941   3.112269   1.208418
     7  O    2.438456   3.336942   2.740876   2.751772   1.350442
     8  H    2.403398   3.455356   2.446495   2.501137   1.918775
                    6          7          8
     6  O    0.000000
     7  O    2.212468   0.000000
     8  H    3.011940   0.972216   0.000000
 Stoichiometry    C2H4O2
 Framework group  C1[X(C2H4O2)]
 Deg. of freedom    18
 Full point group                 C1      NOp   1
 RotChk:  IX=0 Diff= 1.77D-02
 Largest Abelian subgroup         C1      NOp   1
 Largest concise Abelian subgroup C1      NOp   1
                         Standard orientation:                         
 ---------------------------------------------------------------------
 Center     Atomic      Atomic             Coordinates (Angstroms)
 Number     Number       Type             X           Y           Z
 ---------------------------------------------------------------------
      1          6           0        1.377046   -0.046597    0.001259
      2          1           0        1.850785    0.933557   -0.029906
      3          1           0        1.709324   -0.638662   -0.860941
      4          1           0        1.698708   -0.575749    0.907280
      5          6           0       -0.131959    0.129196   -0.007385
      6          8           0       -0.690388    1.200816    0.000495
      7          8           0       -0.865285   -1.004724    0.004965
      8          1           0       -0.283961   -1.783481   -0.023360
 ---------------------------------------------------------------------
 Rotational constants (GHZ):          11.0404421           9.5131487           5.2785877
 Leave Link  202 at Wed Mar 27 13:54:24 2024, MaxMem=  1073741824 cpu:               0.0 elap:               0.0
 (Enter /apps/versions/2023.01/rocky8/x86_64/generic/software/Gaussian/16.B.01/g16/l301.exe)
 Standard basis: 6-31G(d) (6D, 7F)
 Ernie: Thresh=  0.10000D-02 Tol=  0.10000D-05 Strict=F.
 There are    68 symmetry adapted cartesian basis functions of A   symmetry.
 There are    68 symmetry adapted basis functions of A   symmetry.
    68 basis functions,   128 primitive gaussians,    68 cartesian basis functions
    16 alpha electrons       16 beta electrons
       nuclear repulsion energy       120.6518002904 Hartrees.
 IExCor=  402 DFT=T Ex+Corr=B3LYP ExCW=0 ScaHFX=  0.200000
 ScaDFX=  0.800000  0.720000  1.000000  0.810000 ScalE2=  1.000000  1.000000
 IRadAn=      5 IRanWt=     -1 IRanGd=            0 ICorTp=0 IEmpDi=  4
 NAtoms=    8 NActive=    8 NUniq=    8 SFac= 1.00D+00 NAtFMM=   60 NAOKFM=F Big=F
 Integral buffers will be    131072 words long.
 Raffenetti 2 integral format.
 Two-electron integral symmetry is turned on.
 Leave Link  301 at Wed Mar 27 13:54:24 2024, MaxMem=  1073741824 cpu:               0.4 elap:               0.1
 (Enter /apps/versions/2023.01/rocky8/x86_64/generic/software/Gaussian/16.B.01/g16/l302.exe)
 NPDir=0 NMtPBC=     1 NCelOv=     1 NCel=       1 NClECP=     1 NCelD=      1
         NCelK=      1 NCelE2=     1 NClLst=     1 CellRange=     0.0.
 One-electron integrals computed using PRISM.
 One-electron integral symmetry used in STVInt
 NBasis=    68 RedAO= T EigKep=  4.59D-03  NBF=    68
 NBsUse=    68 1.00D-06 EigRej= -1.00D+00 NBFU=    68
 Precomputing XC quadrature grid using
 IXCGrd= 4 IRadAn=           5 IRanWt=          -1 IRanGd=           0 AccXCQ= 0.00D+00.
 Generated NRdTot=       0 NPtTot=           0 NUsed=           0 NTot=          32
 NSgBfM=    68    68    68    68    68 MxSgAt=     8 MxSgA2=     8.
 Leave Link  302 at Wed Mar 27 13:54:25 2024, MaxMem=  1073741824 cpu:               1.3 elap:               0.6
 (Enter /apps/versions/2023.01/rocky8/x86_64/generic/software/Gaussian/16.B.01/g16/l303.exe)
 DipDrv:  MaxL=1.
 Leave Link  303 at Wed Mar 27 13:54:25 2024, MaxMem=  1073741824 cpu:               0.4 elap:               0.2
 (Enter /apps/versions/2023.01/rocky8/x86_64/generic/software/Gaussian/16.B.01/g16/l401.exe)
 Initial guess from the checkpoint file:  "098457434.chk"
 B after Tr=     0.000000    0.000000   -0.000000
         Rot=    0.999977   -0.000407    0.000285   -0.006790 Ang=  -0.78 deg.
 Guess basis will be translated and rotated to current coordinates.
 JPrj=2 DoOrth=T DoCkMO=T.
 Generating alternative initial guess.
 ExpMin= 1.61D-01 ExpMax= 5.48D+03 ExpMxC= 8.25D+02 IAcc=3 IRadAn=         5 AccDes= 0.00D+00
 Harris functional with IExCor=  402 and IRadAn=       5 diagonalized for initial guess.
 HarFok:  IExCor=  402 AccDes= 0.00D+00 IRadAn=         5 IDoV= 1 UseB2=F ITyADJ=14
 ICtDFT=  3500011 ScaDFX=  1.000000  1.000000  1.000000  1.000000
 FoFCou: FMM=F IPFlag=           0 FMFlag=      100000 FMFlg1=           0
         NFxFlg=           0 DoJE=T BraDBF=F KetDBF=T FulRan=T
         wScrn=  0.000000 ICntrl=       500 IOpCl=  0 I1Cent=   200000004 NGrid=           0
         NMat0=    1 NMatS0=      1 NMatT0=    0 NMatD0=    1 NMtDS0=    0 NMtDT0=    0
 Petite list used in FoFCou.
 Harris En= -229.114458067988    
 Leave Link  401 at Wed Mar 27 13:54:27 2024, MaxMem=  1073741824 cpu:               2.9 elap:               1.4
 (Enter /apps/versions/2023.01/rocky8/x86_64/generic/software/Gaussian/16.B.01/g16/l502.exe)
 Keep R1 ints in memory in canonical form, NReq=9900287.
 FoFCou: FMM=F IPFlag=           0 FMFlag=           0 FMFlg1=           0
         NFxFlg=           0 DoJE=F BraDBF=F KetDBF=F FulRan=T
         wScrn=  0.000000 ICntrl=       600 IOpCl=  0 I1Cent=           0 NGrid=           0
         NMat0=    1 NMatS0=   2346 NMatT0=    0 NMatD0=    1 NMtDS0=    0 NMtDT0=    0
 Symmetry not used in FoFCou.
 Two-electron integral symmetry not used.
 Closed shell SCF:
 Using DIIS extrapolation, IDIIS=  1040.
 NGot=  1073741824 LenX=  1070978087 LenY=  1070973022
 Requested convergence on RMS density matrix=1.00D-08 within 128 cycles.
 Requested convergence on MAX density matrix=1.00D-06.
 Requested convergence on             energy=1.00D-06.
 No special actions if energy rises.
 Integral accuracy reduced to 1.0D-05 until final iterations.

 Cycle   1  Pass 0  IDiag  1:
 E= -229.070765465102    
 DIIS: error= 1.94D-03 at cycle   1 NSaved=   1.
 NSaved= 1 IEnMin= 1 EnMin= -229.070765465102     IErMin= 1 ErrMin= 1.94D-03
 ErrMax= 1.94D-03  0.00D+00 EMaxC= 1.00D-01 BMatC= 6.59D-04 BMatP= 6.59D-04
 IDIUse=3 WtCom= 9.81D-01 WtEn= 1.94D-02
 Coeff-Com:  0.100D+01
 Coeff-En:   0.100D+01
 Coeff:      0.100D+01
 Gap=     1.504 Goal=   None    Shift=    0.000
 GapD=    1.504 DampG=2.000 DampE=1.000 DampFc=2.0000 IDamp=-1.
 RMSDP=5.98D-04 MaxDP=9.48D-03              OVMax= 8.28D-03

 Cycle   2  Pass 0  IDiag  1:
 E= -229.071633142198     Delta-E=       -0.000867677096 Rises=F Damp=F
 DIIS: error= 7.60D-04 at cycle   2 NSaved=   2.
 NSaved= 2 IEnMin= 2 EnMin= -229.071633142198     IErMin= 2 ErrMin= 7.60D-04
 ErrMax= 7.60D-04  0.00D+00 EMaxC= 1.00D-01 BMatC= 7.40D-05 BMatP= 6.59D-04
 IDIUse=3 WtCom= 9.92D-01 WtEn= 7.60D-03
 Coeff-Com:  0.136D+00 0.864D+00
 Coeff-En:   0.000D+00 0.100D+01
 Coeff:      0.135D+00 0.865D+00
 Gap=     0.279 Goal=   None    Shift=    0.000
 RMSDP=1.97D-04 MaxDP=3.28D-03 DE=-8.68D-04 OVMax= 3.80D-03

 Cycle   3  Pass 0  IDiag  1:
 E= -229.071618945844     Delta-E=        0.000014196355 Rises=F Damp=F
 DIIS: error= 1.00D-03 at cycle   3 NSaved=   3.
 NSaved= 3 IEnMin= 2 EnMin= -229.071633142198     IErMin= 2 ErrMin= 7.60D-04
 ErrMax= 1.00D-03  0.00D+00 EMaxC= 1.00D-01 BMatC= 9.72D-05 BMatP= 7.40D-05
 IDIUse=3 WtCom= 2.40D-01 WtEn= 7.60D-01
 Coeff-Com: -0.342D-02 0.537D+00 0.466D+00
 Coeff-En:   0.000D+00 0.552D+00 0.448D+00
 Coeff:     -0.822D-03 0.549D+00 0.452D+00
 Gap=     0.280 Goal=   None    Shift=    0.000
 RMSDP=1.21D-04 MaxDP=2.24D-03 DE= 1.42D-05 OVMax= 2.41D-03

 Cycle   4  Pass 0  IDiag  1:
 E= -229.071685366344     Delta-E=       -0.000066420501 Rises=F Damp=F
 DIIS: error= 2.22D-04 at cycle   4 NSaved=   4.
 NSaved= 4 IEnMin= 4 EnMin= -229.071685366344     IErMin= 4 ErrMin= 2.22D-04
 ErrMax= 2.22D-04  0.00D+00 EMaxC= 1.00D-01 BMatC= 4.31D-06 BMatP= 7.40D-05
 IDIUse=3 WtCom= 9.98D-01 WtEn= 2.22D-03
 Coeff-Com: -0.110D-01 0.211D+00 0.239D+00 0.561D+00
 Coeff-En:   0.000D+00 0.000D+00 0.000D+00 0.100D+01
 Coeff:     -0.109D-01 0.210D+00 0.239D+00 0.562D+00
 Gap=     0.280 Goal=   None    Shift=    0.000
 RMSDP=3.33D-05 MaxDP=5.63D-04 DE=-6.64D-05 OVMax= 1.10D-03

 Cycle   5  Pass 0  IDiag  1:
 E= -229.071688118318     Delta-E=       -0.000002751974 Rises=F Damp=F
 DIIS: error= 1.07D-04 at cycle   5 NSaved=   5.
 NSaved= 5 IEnMin= 5 EnMin= -229.071688118318     IErMin= 5 ErrMin= 1.07D-04
 ErrMax= 1.07D-04  0.00D+00 EMaxC= 1.00D-01 BMatC= 1.20D-06 BMatP= 4.31D-06
 IDIUse=3 WtCom= 9.99D-01 WtEn= 1.07D-03
 Coeff-Com: -0.779D-02 0.847D-01 0.111D+00 0.375D+00 0.437D+00
 Coeff-En:   0.000D+00 0.000D+00 0.000D+00 0.195D+00 0.805D+00
 Coeff:     -0.778D-02 0.846D-01 0.111D+00 0.375D+00 0.437D+00
 Gap=     0.280 Goal=   None    Shift=    0.000
 RMSDP=1.26D-05 MaxDP=2.25D-04 DE=-2.75D-06 OVMax= 3.77D-04

 Cycle   6  Pass 0  IDiag  1:
 E= -229.071688977192     Delta-E=       -0.000000858874 Rises=F Damp=F
 DIIS: error= 1.42D-05 at cycle   6 NSaved=   6.
 NSaved= 6 IEnMin= 6 EnMin= -229.071688977192     IErMin= 6 ErrMin= 1.42D-05
 ErrMax= 1.42D-05  0.00D+00 EMaxC= 1.00D-01 BMatC= 2.12D-08 BMatP= 1.20D-06
 IDIUse=1 WtCom= 1.00D+00 WtEn= 0.00D+00
 Coeff-Com: -0.236D-02 0.199D-01 0.285D-01 0.120D+00 0.185D+00 0.648D+00
 Coeff:     -0.236D-02 0.199D-01 0.285D-01 0.120D+00 0.185D+00 0.648D+00
 Gap=     0.280 Goal=   None    Shift=    0.000
 RMSDP=2.48D-06 MaxDP=2.82D-05 DE=-8.59D-07 OVMax= 4.58D-05

 Initial convergence to 1.0D-05 achieved.  Increase integral accuracy.
 Cycle   7  Pass 1  IDiag  1:
 E= -229.071689153899     Delta-E=       -0.000000176707 Rises=F Damp=F
 DIIS: error= 4.62D-06 at cycle   1 NSaved=   1.
 NSaved= 1 IEnMin= 1 EnMin= -229.071689153899     IErMin= 1 ErrMin= 4.62D-06
 ErrMax= 4.62D-06  0.00D+00 EMaxC= 1.00D-01 BMatC= 1.87D-09 BMatP= 1.87D-09
 IDIUse=1 WtCom= 1.00D+00 WtEn= 0.00D+00
 Coeff-Com:  0.100D+01
 Coeff:      0.100D+01
 Gap=     0.280 Goal=   None    Shift=    0.000
 RMSDP=2.48D-06 MaxDP=2.82D-05 DE=-1.77D-07 OVMax= 2.37D-05

 Cycle   8  Pass 1  IDiag  1:
 E= -229.071689154134     Delta-E=       -0.000000000235 Rises=F Damp=F
 DIIS: error= 5.15D-06 at cycle   2 NSaved=   2.
 NSaved= 2 IEnMin= 2 EnMin= -229.071689154134     IErMin= 1 ErrMin= 4.62D-06
 ErrMax= 5.15D-06  0.00D+00 EMaxC= 1.00D-01 BMatC= 2.05D-09 BMatP= 1.87D-09
 IDIUse=1 WtCom= 1.00D+00 WtEn= 0.00D+00
 Coeff-Com:  0.513D+00 0.487D+00
 Coeff:      0.513D+00 0.487D+00
 Gap=     0.280 Goal=   None    Shift=    0.000
 RMSDP=7.94D-07 MaxDP=1.06D-05 DE=-2.35D-10 OVMax= 2.06D-05

 Cycle   9  Pass 1  IDiag  1:
 E= -229.071689155722     Delta-E=       -0.000000001588 Rises=F Damp=F
 DIIS: error= 1.75D-06 at cycle   3 NSaved=   3.
 NSaved= 3 IEnMin= 3 EnMin= -229.071689155722     IErMin= 3 ErrMin= 1.75D-06
 ErrMax= 1.75D-06  0.00D+00 EMaxC= 1.00D-01 BMatC= 2.98D-10 BMatP= 1.87D-09
 IDIUse=1 WtCom= 1.00D+00 WtEn= 0.00D+00
 Coeff-Com:  0.194D+00 0.289D+00 0.518D+00
 Coeff:      0.194D+00 0.289D+00 0.518D+00
 Gap=     0.280 Goal=   None    Shift=    0.000
 RMSDP=2.46D-07 MaxDP=4.51D-06 DE=-1.59D-09 OVMax= 7.91D-06

 Cycle  10  Pass 1  IDiag  1:
 E= -229.071689155904     Delta-E=       -0.000000000181 Rises=F Damp=F
 DIIS: error= 7.28D-07 at cycle   4 NSaved=   4.
 NSaved= 4 IEnMin= 4 EnMin= -229.071689155904     IErMin= 4 ErrMin= 7.28D-07
 ErrMax= 7.28D-07  0.00D+00 EMaxC= 1.00D-01 BMatC= 4.89D-11 BMatP= 2.98D-10
 IDIUse=1 WtCom= 1.00D+00 WtEn= 0.00D+00
 Coeff-Com:  0.280D-02 0.695D-01 0.319D+00 0.609D+00
 Coeff:      0.280D-02 0.695D-01 0.319D+00 0.609D+00
 Gap=     0.280 Goal=   None    Shift=    0.000
 RMSDP=8.79D-08 MaxDP=1.57D-06 DE=-1.81D-10 OVMax= 2.46D-06

 Cycle  11  Pass 1  IDiag  1:
 E= -229.071689155939     Delta-E=       -0.000000000036 Rises=F Damp=F
 DIIS: error= 2.05D-07 at cycle   5 NSaved=   5.
 NSaved= 5 IEnMin= 5 EnMin= -229.071689155939     IErMin= 5 ErrMin= 2.05D-07
 ErrMax= 2.05D-07  0.00D+00 EMaxC= 1.00D-01 BMatC= 4.00D-12 BMatP= 4.89D-11
 IDIUse=1 WtCom= 1.00D+00 WtEn= 0.00D+00
 Coeff-Com: -0.911D-02 0.260D-01 0.156D+00 0.361D+00 0.466D+00
 Coeff:     -0.911D-02 0.260D-01 0.156D+00 0.361D+00 0.466D+00
 Gap=     0.280 Goal=   None    Shift=    0.000
 RMSDP=2.44D-08 MaxDP=3.63D-07 DE=-3.57D-11 OVMax= 4.58D-07

 Cycle  12  Pass 1  IDiag  1:
 E= -229.071689155943     Delta-E=       -0.000000000004 Rises=F Damp=F
 DIIS: error= 3.07D-08 at cycle   6 NSaved=   6.
 NSaved= 6 IEnMin= 6 EnMin= -229.071689155943     IErMin= 6 ErrMin= 3.07D-08
 ErrMax= 3.07D-08  0.00D+00 EMaxC= 1.00D-01 BMatC= 1.30D-13 BMatP= 4.00D-12
 IDIUse=1 WtCom= 1.00D+00 WtEn= 0.00D+00
 Coeff-Com: -0.430D-02 0.536D-02 0.373D-01 0.106D+00 0.200D+00 0.655D+00
 Coeff:     -0.430D-02 0.536D-02 0.373D-01 0.106D+00 0.200D+00 0.655D+00
 Gap=     0.280 Goal=   None    Shift=    0.000
 RMSDP=5.46D-09 MaxDP=7.20D-08 DE=-3.52D-12 OVMax= 1.17D-07

 SCF Done:  E(RB3LYP) =  -229.071689156     A.U. after   12 cycles
            NFock= 12  Conv=0.55D-08     -V/T= 2.0088
 KE= 2.270755830631D+02 PE=-7.781906320088D+02 EE= 2.013915594993D+02
 Leave Link  502 at Wed Mar 27 13:54:32 2024, MaxMem=  1073741824 cpu:              11.4 elap:               5.6
 (Enter /apps/versions/2023.01/rocky8/x86_64/generic/software/Gaussian/16.B.01/g16/l701.exe)
 ... and contract with generalized density number  0.
 Compute integral first derivatives.
 Leave Link  701 at Wed Mar 27 13:54:33 2024, MaxMem=  1073741824 cpu:               1.0 elap:               0.5
 (Enter /apps/versions/2023.01/rocky8/x86_64/generic/software/Gaussian/16.B.01/g16/l702.exe)
 L702 exits ... SP integral derivatives will be done elsewhere.
 Leave Link  702 at Wed Mar 27 13:54:33 2024, MaxMem=  1073741824 cpu:               0.4 elap:               0.1
 (Enter /apps/versions/2023.01/rocky8/x86_64/generic/software/Gaussian/16.B.01/g16/l703.exe)
 Integral derivatives from FoFJK, PRISM(SPDF).
 Compute integral first derivatives, UseDBF=F ICtDFT=           0.
 Calling FoFJK, ICntrl=      2127 FMM=F ISym2X=0 I1Cent= 0 IOpClX= 0 NMat=1 NMatS=1 NMatT=0.
 FoFJK:  IHMeth= 1 ICntrl=    2127 DoSepK=F KAlg= 0 I1Cent=           0 FoldK=F
 IRaf=         0 NMat=       1 IRICut=       1 DoRegI=T DoRafI=F ISym2E= 0 IDoP0=0 IntGTp=1.
 FoFCou: FMM=F IPFlag=           0 FMFlag=      100000 FMFlg1=         800
         NFxFlg=           0 DoJE=F BraDBF=F KetDBF=F FulRan=T
         wScrn=  0.000000 ICntrl=      2127 IOpCl=  0 I1Cent=           0 NGrid=           0
         NMat0=    1 NMatS0=      1 NMatT0=    0 NMatD0=    1 NMtDS0=    0 NMtDT0=    0
 Symmetry not used in FoFCou.
 Leave Link  703 at Wed Mar 27 13:54:36 2024, MaxMem=  1073741824 cpu:               5.1 elap:               2.5
 (Enter /apps/versions/2023.01/rocky8/x86_64/generic/software/Gaussian/16.B.01/g16/l716.exe)
 Dipole        = 1.22831798D+00-1.19171170D+00-1.82408255D-02
 ***** Axes restored to original set *****
 -------------------------------------------------------------------
 Center     Atomic                   Forces (Hartrees/Bohr)
 Number     Number              X              Y              Z
 -------------------------------------------------------------------
      1        6           0.001380966    0.002217175    0.001293962
      2        1           0.000028488   -0.000431437   -0.000053627
      3        1          -0.000239039   -0.000447568    0.000007728
      4        1          -0.000449029   -0.000273843   -0.000109762
      5        6          -0.008500593   -0.011646632   -0.005031113
      6        8           0.005036407    0.001631476    0.000950764
      7        8           0.003484367    0.008705019    0.003220091
      8        1          -0.000741567    0.000245809   -0.000278044
 -------------------------------------------------------------------
 Cartesian Forces:  Max     0.011646632 RMS     0.003928291
 Leave Link  716 at Wed Mar 27 13:54:36 2024, MaxMem=  1073741824 cpu:               0.4 elap:               0.2
 (Enter /apps/versions/2023.01/rocky8/x86_64/generic/software/Gaussian/16.B.01/g16/l103.exe)

 GradGradGradGradGradGradGradGradGradGradGradGradGradGradGradGradGradGrad
 Berny optimization.
 Using GEDIIS/GDIIS optimizer.
 FormGI is forming the generalized inverse of G from B-inverse, IUseBI=4.
 Internal  Forces:  Max     0.009434435 RMS     0.002347609
 Search for a local minimum.
 Step number   2 out of a maximum of  100
 All quantities printed in internal units (Hartrees-Bohrs-Radians)
 RMS Force = .23476D-02 SwitMx=.10000D-02 MixMth= 1
 Mixed Optimization -- RFO/linear search
 Update second derivatives using D2CorX and points    1    2
 DE= -1.84D-03 DEPred=-1.65D-03 R= 1.12D+00
 TightC=F SS=  1.41D+00  RLast= 1.10D-01 DXNew= 5.0454D-01 3.3009D-01
 Trust test= 1.12D+00 RLast= 1.10D-01 DXMaxT set to 3.30D-01
 ITU=  1  0
 Use linear search instead of GDIIS.
     Eigenvalues ---    0.00604   0.01075   0.02524   0.07172   0.07348
     Eigenvalues ---    0.15962   0.16000   0.16000   0.16631   0.23956
     Eigenvalues ---    0.25803   0.31202   0.34300   0.34405   0.34950
     Eigenvalues ---    0.43431   0.57542   0.92074
 RFO step:  Lambda=-4.44564809D-04 EMin= 6.03508205D-03
 Quartic linear search produced a step of  0.12076.
 Iteration  1 RMS(Cart)=  0.01477488 RMS(Int)=  0.00062527
 Iteration  2 RMS(Cart)=  0.00048556 RMS(Int)=  0.00034359
 Iteration  3 RMS(Cart)=  0.00000022 RMS(Int)=  0.00034359
 ITry= 1 IFail=0 DXMaxC= 4.70D-02 DCOld= 1.00D+10 DXMaxT= 3.30D-01 DXLimC= 3.00D+00 Rises=F
 Variable       Old X    -DE/DX   Delta X   Delta X   Delta X     New X
                                 (Linear)    (Quad)   (Total)
    R1        2.05807   0.00042   0.00009   0.00137   0.00146   2.05952
    R2        2.07383  -0.00017   0.00065  -0.00049   0.00016   2.07399
    R3        2.07383  -0.00025   0.00074  -0.00075  -0.00001   2.07382
    R4        2.87094   0.00000   0.00159   0.00016   0.00175   2.87268
    R5        2.28358  -0.00527  -0.00249  -0.00650  -0.00899   2.27459
    R6        2.55197   0.00943   0.00335   0.01857   0.02192   2.57388
    R7        1.83722  -0.00064  -0.00640  -0.00222  -0.00862   1.82860
    A1        1.90854  -0.00024  -0.00157  -0.00263  -0.00420   1.90433
    A2        1.90718  -0.00009  -0.00115  -0.00185  -0.00300   1.90418
    A3        1.90473   0.00000  -0.00045  -0.00109  -0.00155   1.90318
    A4        1.87522   0.00039   0.00089   0.00486   0.00572   1.88094
    A5        1.93767   0.00016   0.00116   0.00180   0.00294   1.94061
    A6        1.93010  -0.00023   0.00111  -0.00110  -0.00001   1.93009
    A7        2.16709   0.00072   0.00225   0.00393   0.00519   2.17228
    A8        2.02880  -0.00327  -0.00106  -0.01415  -0.01620   2.01260
    A9        2.08703   0.00257  -0.00121   0.01203   0.00982   2.09685
   A10        1.92583   0.00075  -0.00796   0.00493  -0.00304   1.92279
    D1       -0.04401   0.00042  -0.00102   0.04171   0.04065  -0.00337
    D2        3.12233  -0.00039   0.00122  -0.04355  -0.04229   3.08003
    D3       -2.14888   0.00061   0.00049   0.04456   0.04503  -2.10386
    D4        1.01745  -0.00019   0.00273  -0.04070  -0.03792   0.97954
    D5        2.05445   0.00017  -0.00204   0.03804   0.03596   2.09040
    D6       -1.06240  -0.00064   0.00020  -0.04721  -0.04698  -1.10939
    D7       -0.04532   0.00066   0.00208   0.05142   0.05357   0.00824
    D8        3.11981  -0.00008   0.00419  -0.02958  -0.02546   3.09435
         Item               Value     Threshold  Converged?
 Maximum Force            0.009434     0.000450     NO 
 RMS     Force            0.002348     0.000300     NO 
 Maximum Displacement     0.047000     0.001800     NO 
 RMS     Displacement     0.014906     0.001200     NO 
 Predicted change in Energy=-2.461551D-04
 Lowest energy point so far.  Saving SCF results.
 GradGradGradGradGradGradGradGradGradGradGradGradGradGradGradGradGradGrad

 Leave Link  103 at Wed Mar 27 13:54:36 2024, MaxMem=  1073741824 cpu:               0.2 elap:               0.1
 (Enter /apps/versions/2023.01/rocky8/x86_64/generic/software/Gaussian/16.B.01/g16/l202.exe)
                          Input orientation:                          
 ---------------------------------------------------------------------
 Center     Atomic      Atomic             Coordinates (Angstroms)
 Number     Number       Type             X           Y           Z
 ---------------------------------------------------------------------
      1          6           0        0.390869   -4.588895   -1.619076
      2          1           0        0.248892   -5.644592   -1.849570
      3          1           0        1.024130   -4.497821   -0.727333
      4          1           0        0.915894   -4.106606   -2.453386
      5          6           0       -0.967063   -3.942690   -1.396988
      6          8           0       -2.018447   -4.523769   -1.472725
      7          8           0       -0.934836   -2.632785   -1.025148
      8          1           0       -0.019439   -2.323842   -0.970775
 ---------------------------------------------------------------------
                    Distance matrix (angstroms):
                    1          2          3          4          5
     1  C    0.000000
     2  H    1.089853   0.000000
     3  H    1.097506   1.781991   0.000000
     4  H    1.097419   1.781821   1.773139   0.000000
     5  C    1.520159   2.140058   2.172892   2.165266   0.000000
     6  O    2.414634   2.557163   3.132659   3.121871   1.203659
     7  O    2.436516   3.339441   2.721140   2.763551   1.362040
     8  H    2.391467   3.445528   2.423734   2.500246   1.923621
                    6          7          8
     6  O    0.000000
     7  O    2.224939   0.000000
     8  H    3.014575   0.967654   0.000000
 Stoichiometry    C2H4O2
 Framework group  C1[X(C2H4O2)]
 Deg. of freedom    18
 Full point group                 C1      NOp   1
 RotChk:  IX=0 Diff= 1.02D-02
 Largest Abelian subgroup         C1      NOp   1
 Largest concise Abelian subgroup C1      NOp   1
                         Standard orientation:                         
 ---------------------------------------------------------------------
 Center     Atomic      Atomic             Coordinates (Angstroms)
 Number     Number       Type             X           Y           Z
 ---------------------------------------------------------------------
      1          6           0        1.374493   -0.045315   -0.002463
      2          1           0        1.850377    0.934137   -0.047057
      3          1           0        1.690257   -0.638066   -0.870483
      4          1           0        1.712830   -0.568162    0.901134
      5          6           0       -0.134553    0.136918    0.018857
      6          8           0       -0.692258    1.203278   -0.006406
      7          8           0       -0.860632   -1.015276   -0.001416
      8          1           0       -0.269990   -1.781548   -0.019383
 ---------------------------------------------------------------------
 Rotational constants (GHZ):          10.9318420           9.5454961           5.2646429
 Leave Link  202 at Wed Mar 27 13:54:36 2024, MaxMem=  1073741824 cpu:               0.0 elap:               0.0
 (Enter /apps/versions/2023.01/rocky8/x86_64/generic/software/Gaussian/16.B.01/g16/l301.exe)
 Standard basis: 6-31G(d) (6D, 7F)
 Ernie: Thresh=  0.10000D-02 Tol=  0.10000D-05 Strict=F.
 There are    68 symmetry adapted cartesian basis functions of A   symmetry.
 There are    68 symmetry adapted basis functions of A   symmetry.
    68 basis functions,   128 primitive gaussians,    68 cartesian basis functions
    16 alpha electrons       16 beta electrons
       nuclear repulsion energy       120.5118595369 Hartrees.
 IExCor=  402 DFT=T Ex+Corr=B3LYP ExCW=0 ScaHFX=  0.200000
 ScaDFX=  0.800000  0.720000  1.000000  0.810000 ScalE2=  1.000000  1.000000
 IRadAn=      5 IRanWt=     -1 IRanGd=            0 ICorTp=0 IEmpDi=  4
 NAtoms=    8 NActive=    8 NUniq=    8 SFac= 1.00D+00 NAtFMM=   60 NAOKFM=F Big=F
 Integral buffers will be    131072 words long.
 Raffenetti 2 integral format.
 Two-electron integral symmetry is turned on.
 Leave Link  301 at Wed Mar 27 13:54:36 2024, MaxMem=  1073741824 cpu:               0.5 elap:               0.2
 (Enter /apps/versions/2023.01/rocky8/x86_64/generic/software/Gaussian/16.B.01/g16/l302.exe)
 NPDir=0 NMtPBC=     1 NCelOv=     1 NCel=       1 NClECP=     1 NCelD=      1
         NCelK=      1 NCelE2=     1 NClLst=     1 CellRange=     0.0.
 One-electron integrals computed using PRISM.
 One-electron integral symmetry used in STVInt
 NBasis=    68 RedAO= T EigKep=  4.54D-03  NBF=    68
 NBsUse=    68 1.00D-06 EigRej= -1.00D+00 NBFU=    68
 Precomputing XC quadrature grid using
 IXCGrd= 4 IRadAn=           5 IRanWt=          -1 IRanGd=           0 AccXCQ= 0.00D+00.
 Generated NRdTot=       0 NPtTot=           0 NUsed=           0 NTot=          32
 NSgBfM=    68    68    68    68    68 MxSgAt=     8 MxSgA2=     8.
 Leave Link  302 at Wed Mar 27 13:54:37 2024, MaxMem=  1073741824 cpu:               1.4 elap:               0.7
 (Enter /apps/versions/2023.01/rocky8/x86_64/generic/software/Gaussian/16.B.01/g16/l303.exe)
 DipDrv:  MaxL=1.
 Leave Link  303 at Wed Mar 27 13:54:37 2024, MaxMem=  1073741824 cpu:               0.3 elap:               0.2
 (Enter /apps/versions/2023.01/rocky8/x86_64/generic/software/Gaussian/16.B.01/g16/l401.exe)
 Initial guess from the checkpoint file:  "098457434.chk"
 B after Tr=     0.000000    0.000000   -0.000000
         Rot=    0.999999    0.000242   -0.000904   -0.001416 Ang=   0.19 deg.
 Guess basis will be translated and rotated to current coordinates.
 JPrj=2 DoOrth=T DoCkMO=T.
 Generating alternative initial guess.
 ExpMin= 1.61D-01 ExpMax= 5.48D+03 ExpMxC= 8.25D+02 IAcc=3 IRadAn=         5 AccDes= 0.00D+00
 Harris functional with IExCor=  402 and IRadAn=       5 diagonalized for initial guess.
 HarFok:  IExCor=  402 AccDes= 0.00D+00 IRadAn=         5 IDoV= 1 UseB2=F ITyADJ=14
 ICtDFT=  3500011 ScaDFX=  1.000000  1.000000  1.000000  1.000000
 FoFCou: FMM=F IPFlag=           0 FMFlag=      100000 FMFlg1=           0
         NFxFlg=           0 DoJE=T BraDBF=F KetDBF=T FulRan=T
         wScrn=  0.000000 ICntrl=       500 IOpCl=  0 I1Cent=   200000004 NGrid=           0
         NMat0=    1 NMatS0=      1 NMatT0=    0 NMatD0=    1 NMtDS0=    0 NMtDT0=    0
 Petite list used in FoFCou.
 Harris En= -229.113814772569    
 Leave Link  401 at Wed Mar 27 13:54:39 2024, MaxMem=  1073741824 cpu:               3.1 elap:               1.6
 (Enter /apps/versions/2023.01/rocky8/x86_64/generic/software/Gaussian/16.B.01/g16/l502.exe)
 Keep R1 ints in memory in canonical form, NReq=9900287.
 FoFCou: FMM=F IPFlag=           0 FMFlag=           0 FMFlg1=           0
         NFxFlg=           0 DoJE=F BraDBF=F KetDBF=F FulRan=T
         wScrn=  0.000000 ICntrl=       600 IOpCl=  0 I1Cent=           0 NGrid=           0
         NMat0=    1 NMatS0=   2346 NMatT0=    0 NMatD0=    1 NMtDS0=    0 NMtDT0=    0
 Symmetry not used in FoFCou.
 Two-electron integral symmetry not used.
 Closed shell SCF:
 Using DIIS extrapolation, IDIIS=  1040.
 NGot=  1073741824 LenX=  1070978087 LenY=  1070973022
 Requested convergence on RMS density matrix=1.00D-08 within 128 cycles.
 Requested convergence on MAX density matrix=1.00D-06.
 Requested convergence on             energy=1.00D-06.
 No special actions if energy rises.
 Integral accuracy reduced to 1.0D-05 until final iterations.

 Cycle   1  Pass 0  IDiag  1:
 E= -229.070640837138    
 DIIS: error= 1.82D-03 at cycle   1 NSaved=   1.
 NSaved= 1 IEnMin= 1 EnMin= -229.070640837138     IErMin= 1 ErrMin= 1.82D-03
 ErrMax= 1.82D-03  0.00D+00 EMaxC= 1.00D-01 BMatC= 6.00D-04 BMatP= 6.00D-04
 IDIUse=3 WtCom= 9.82D-01 WtEn= 1.82D-02
 Coeff-Com:  0.100D+01
 Coeff-En:   0.100D+01
 Coeff:      0.100D+01
 Gap=     1.509 Goal=   None    Shift=    0.000
 GapD=    1.509 DampG=2.000 DampE=1.000 DampFc=2.0000 IDamp=-1.
 RMSDP=7.63D-04 MaxDP=9.39D-03              OVMax= 9.05D-03

 Cycle   2  Pass 0  IDiag  1:
 E= -229.071656043213     Delta-E=       -0.001015206075 Rises=F Damp=F
 DIIS: error= 4.50D-04 at cycle   2 NSaved=   2.
 NSaved= 2 IEnMin= 2 EnMin= -229.071656043213     IErMin= 2 ErrMin= 4.50D-04
 ErrMax= 4.50D-04  0.00D+00 EMaxC= 1.00D-01 BMatC= 3.53D-05 BMatP= 6.00D-04
 IDIUse=3 WtCom= 9.96D-01 WtEn= 4.50D-03
 Coeff-Com:  0.167D-01 0.983D+00
 Coeff-En:   0.000D+00 0.100D+01
 Coeff:      0.167D-01 0.983D+00
 Gap=     0.280 Goal=   None    Shift=    0.000
 RMSDP=1.76D-04 MaxDP=3.67D-03 DE=-1.02D-03 OVMax= 5.39D-03

 Cycle   3  Pass 0  IDiag  1:
 E= -229.071600363265     Delta-E=        0.000055679948 Rises=F Damp=F
 DIIS: error= 1.00D-03 at cycle   3 NSaved=   3.
 NSaved= 3 IEnMin= 2 EnMin= -229.071656043213     IErMin= 2 ErrMin= 4.50D-04
 ErrMax= 1.00D-03  0.00D+00 EMaxC= 1.00D-01 BMatC= 1.16D-04 BMatP= 3.53D-05
 IDIUse=3 WtCom= 2.40D-01 WtEn= 7.60D-01
 Coeff-Com: -0.488D-01 0.683D+00 0.366D+00
 Coeff-En:   0.000D+00 0.720D+00 0.280D+00
 Coeff:     -0.117D-01 0.711D+00 0.301D+00
 Gap=     0.281 Goal=   None    Shift=    0.000
 RMSDP=1.13D-04 MaxDP=2.33D-03 DE= 5.57D-05 OVMax= 3.60D-03

 Cycle   4  Pass 0  IDiag  1:
 E= -229.071686679319     Delta-E=       -0.000086316054 Rises=F Damp=F
 DIIS: error= 6.42D-05 at cycle   4 NSaved=   4.
 NSaved= 4 IEnMin= 4 EnMin= -229.071686679319     IErMin= 4 ErrMin= 6.42D-05
 ErrMax= 6.42D-05  0.00D+00 EMaxC= 1.00D-01 BMatC= 6.58D-07 BMatP= 3.53D-05
 IDIUse=1 WtCom= 1.00D+00 WtEn= 0.00D+00
 Coeff-Com: -0.136D-01 0.131D+00 0.126D-01 0.870D+00
 Coeff:     -0.136D-01 0.131D+00 0.126D-01 0.870D+00
 Gap=     0.281 Goal=   None    Shift=    0.000
 RMSDP=1.12D-05 MaxDP=1.63D-04 DE=-8.63D-05 OVMax= 2.46D-04

 Cycle   5  Pass 0  IDiag  1:
 E= -229.071687236522     Delta-E=       -0.000000557203 Rises=F Damp=F
 DIIS: error= 1.10D-05 at cycle   5 NSaved=   5.
 NSaved= 5 IEnMin= 5 EnMin= -229.071687236522     IErMin= 5 ErrMin= 1.10D-05
 ErrMax= 1.10D-05  0.00D+00 EMaxC= 1.00D-01 BMatC= 2.04D-08 BMatP= 6.58D-07
 IDIUse=1 WtCom= 1.00D+00 WtEn= 0.00D+00
 Coeff-Com: -0.192D-02 0.804D-02-0.104D-01 0.238D+00 0.767D+00
 Coeff:     -0.192D-02 0.804D-02-0.104D-01 0.238D+00 0.767D+00
 Gap=     0.281 Goal=   None    Shift=    0.000
 RMSDP=2.69D-06 MaxDP=4.45D-05 DE=-5.57D-07 OVMax= 7.02D-05

 Initial convergence to 1.0D-05 achieved.  Increase integral accuracy.
 Cycle   6  Pass 1  IDiag  1:
 E= -229.071687025031     Delta-E=        0.000000211491 Rises=F Damp=F
 DIIS: error= 8.53D-06 at cycle   1 NSaved=   1.
 NSaved= 1 IEnMin= 1 EnMin= -229.071687025031     IErMin= 1 ErrMin= 8.53D-06
 ErrMax= 8.53D-06  0.00D+00 EMaxC= 1.00D-01 BMatC= 1.14D-08 BMatP= 1.14D-08
 IDIUse=1 WtCom= 1.00D+00 WtEn= 0.00D+00
 Coeff-Com:  0.100D+01
 Coeff:      0.100D+01
 Gap=     0.281 Goal=   None    Shift=    0.000
 RMSDP=2.69D-06 MaxDP=4.45D-05 DE= 2.11D-07 OVMax= 5.25D-05

 Cycle   7  Pass 1  IDiag  1:
 E= -229.071687014460     Delta-E=        0.000000010570 Rises=F Damp=F
 DIIS: error= 1.36D-05 at cycle   2 NSaved=   2.
 NSaved= 2 IEnMin= 1 EnMin= -229.071687025031     IErMin= 1 ErrMin= 8.53D-06
 ErrMax= 1.36D-05  0.00D+00 EMaxC= 1.00D-01 BMatC= 2.73D-08 BMatP= 1.14D-08
 IDIUse=1 WtCom= 1.00D+00 WtEn= 0.00D+00
 Coeff-Com:  0.610D+00 0.390D+00
 Coeff:      0.610D+00 0.390D+00
 Gap=     0.281 Goal=   None    Shift=    0.000
 RMSDP=1.58D-06 MaxDP=3.27D-05 DE= 1.06D-08 OVMax= 3.48D-05

 Cycle   8  Pass 1  IDiag  1:
 E= -229.071687033963     Delta-E=       -0.000000019502 Rises=F Damp=F
 DIIS: error= 6.94D-07 at cycle   3 NSaved=   3.
 NSaved= 3 IEnMin= 3 EnMin= -229.071687033963     IErMin= 3 ErrMin= 6.94D-07
 ErrMax= 6.94D-07  0.00D+00 EMaxC= 1.00D-01 BMatC= 7.27D-11 BMatP= 1.14D-08
 IDIUse=1 WtCom= 1.00D+00 WtEn= 0.00D+00
 Coeff-Com:  0.939D-01 0.842D-01 0.822D+00
 Coeff:      0.939D-01 0.842D-01 0.822D+00
 Gap=     0.281 Goal=   None    Shift=    0.000
 RMSDP=1.94D-07 MaxDP=2.43D-06 DE=-1.95D-08 OVMax= 5.09D-06

 Cycle   9  Pass 1  IDiag  1:
 E= -229.071687034009     Delta-E=       -0.000000000047 Rises=F Damp=F
 DIIS: error= 5.91D-07 at cycle   4 NSaved=   4.
 NSaved= 4 IEnMin= 4 EnMin= -229.071687034009     IErMin= 4 ErrMin= 5.91D-07
 ErrMax= 5.91D-07  0.00D+00 EMaxC= 1.00D-01 BMatC= 3.76D-11 BMatP= 7.27D-11
 IDIUse=1 WtCom= 1.00D+00 WtEn= 0.00D+00
 Coeff-Com: -0.126D-01 0.576D-02 0.462D+00 0.545D+00
 Coeff:     -0.126D-01 0.576D-02 0.462D+00 0.545D+00
 Gap=     0.281 Goal=   None    Shift=    0.000
 RMSDP=9.96D-08 MaxDP=1.53D-06 DE=-4.66D-11 OVMax= 2.50D-06

 Cycle  10  Pass 1  IDiag  1:
 E= -229.071687034039     Delta-E=       -0.000000000030 Rises=F Damp=F
 DIIS: error= 2.79D-07 at cycle   5 NSaved=   5.
 NSaved= 5 IEnMin= 5 EnMin= -229.071687034039     IErMin= 5 ErrMin= 2.79D-07
 ErrMax= 2.79D-07  0.00D+00 EMaxC= 1.00D-01 BMatC= 6.56D-12 BMatP= 3.76D-11
 IDIUse=1 WtCom= 1.00D+00 WtEn= 0.00D+00
 Coeff-Com: -0.164D-01-0.392D-02 0.217D+00 0.357D+00 0.446D+00
 Coeff:     -0.164D-01-0.392D-02 0.217D+00 0.357D+00 0.446D+00
 Gap=     0.281 Goal=   None    Shift=    0.000
 RMSDP=3.62D-08 MaxDP=6.59D-07 DE=-2.96D-11 OVMax= 1.13D-06

 Cycle  11  Pass 1  IDiag  1:
 E= -229.071687034044     Delta-E=       -0.000000000005 Rises=F Damp=F
 DIIS: error= 5.94D-08 at cycle   6 NSaved=   6.
 NSaved= 6 IEnMin= 6 EnMin= -229.071687034044     IErMin= 6 ErrMin= 5.94D-08
 ErrMax= 5.94D-08  0.00D+00 EMaxC= 1.00D-01 BMatC= 4.50D-13 BMatP= 6.56D-12
 IDIUse=1 WtCom= 1.00D+00 WtEn= 0.00D+00
 Coeff-Com: -0.765D-02-0.395D-02 0.294D-01 0.941D-01 0.232D+00 0.656D+00
 Coeff:     -0.765D-02-0.395D-02 0.294D-01 0.941D-01 0.232D+00 0.656D+00
 Gap=     0.281 Goal=   None    Shift=    0.000
 RMSDP=1.06D-08 MaxDP=1.19D-07 DE=-5.00D-12 OVMax= 3.37D-07

 Cycle  12  Pass 1  IDiag  1:
 E= -229.071687034044     Delta-E=       -0.000000000000 Rises=F Damp=F
 DIIS: error= 8.91D-09 at cycle   7 NSaved=   7.
 NSaved= 7 IEnMin= 7 EnMin= -229.071687034044     IErMin= 7 ErrMin= 8.91D-09
 ErrMax= 8.91D-09  0.00D+00 EMaxC= 1.00D-01 BMatC= 6.62D-15 BMatP= 4.50D-13
 IDIUse=1 WtCom= 1.00D+00 WtEn= 0.00D+00
 Coeff-Com:  0.720D-03-0.376D-04-0.160D-01-0.235D-01-0.153D-01 0.681D-01
 Coeff-Com:  0.986D+00
 Coeff:      0.720D-03-0.376D-04-0.160D-01-0.235D-01-0.153D-01 0.681D-01
 Coeff:      0.986D+00
 Gap=     0.281 Goal=   None    Shift=    0.000
 RMSDP=3.23D-09 MaxDP=4.81D-08 DE=-1.71D-13 OVMax= 1.49D-07

 SCF Done:  E(RB3LYP) =  -229.071687034     A.U. after   12 cycles
            NFock= 12  Conv=0.32D-08     -V/T= 2.0088
 KE= 2.270723243465D+02 PE=-7.779019201823D+02 EE= 2.012460492649D+02
 Leave Link  502 at Wed Mar 27 13:54:45 2024, MaxMem=  1073741824 cpu:              11.9 elap:               5.9
 (Enter /apps/versions/2023.01/rocky8/x86_64/generic/software/Gaussian/16.B.01/g16/l701.exe)
 ... and contract with generalized density number  0.
 Compute integral first derivatives.
 Leave Link  701 at Wed Mar 27 13:54:45 2024, MaxMem=  1073741824 cpu:               1.0 elap:               0.5
 (Enter /apps/versions/2023.01/rocky8/x86_64/generic/software/Gaussian/16.B.01/g16/l702.exe)
 L702 exits ... SP integral derivatives will be done elsewhere.
 Leave Link  702 at Wed Mar 27 13:54:45 2024, MaxMem=  1073741824 cpu:               0.3 elap:               0.1
 (Enter /apps/versions/2023.01/rocky8/x86_64/generic/software/Gaussian/16.B.01/g16/l703.exe)
 Integral derivatives from FoFJK, PRISM(SPDF).
 Compute integral first derivatives, UseDBF=F ICtDFT=           0.
 Calling FoFJK, ICntrl=      2127 FMM=F ISym2X=0 I1Cent= 0 IOpClX= 0 NMat=1 NMatS=1 NMatT=0.
 FoFJK:  IHMeth= 1 ICntrl=    2127 DoSepK=F KAlg= 0 I1Cent=           0 FoldK=F
 IRaf=         0 NMat=       1 IRICut=       1 DoRegI=T DoRafI=F ISym2E= 0 IDoP0=0 IntGTp=1.
 FoFCou: FMM=F IPFlag=           0 FMFlag=      100000 FMFlg1=         800
         NFxFlg=           0 DoJE=F BraDBF=F KetDBF=F FulRan=T
         wScrn=  0.000000 ICntrl=      2127 IOpCl=  0 I1Cent=           0 NGrid=           0
         NMat0=    1 NMatS0=      1 NMatT0=    0 NMatD0=    1 NMtDS0=    0 NMtDT0=    0
 Symmetry not used in FoFCou.
 Leave Link  703 at Wed Mar 27 13:54:48 2024, MaxMem=  1073741824 cpu:               5.3 elap:               2.6
 (Enter /apps/versions/2023.01/rocky8/x86_64/generic/software/Gaussian/16.B.01/g16/l716.exe)
 Dipole        = 1.23509246D+00-1.15223265D+00 5.10481572D-03
 ***** Axes restored to original set *****
 -------------------------------------------------------------------
 Center     Atomic                   Forces (Hartrees/Bohr)
 Number     Number              X              Y              Z
 -------------------------------------------------------------------
      1        6           0.000454879    0.000998714   -0.002732751
      2        1           0.000101953   -0.000132150   -0.000252054
      3        1          -0.000958148    0.000310628   -0.000085721
      4        1           0.000291439   -0.000341593    0.000219919
      5        6           0.000798393   -0.004569307    0.007972777
      6        8          -0.000419061    0.001522195   -0.003079461
      7        8          -0.003407072    0.000860009   -0.001614113
      8        1           0.003137617    0.001351504   -0.000428596
 -------------------------------------------------------------------
 Cartesian Forces:  Max     0.007972777 RMS     0.002362030
 Leave Link  716 at Wed Mar 27 13:54:48 2024, MaxMem=  1073741824 cpu:               0.3 elap:               0.1
 (Enter /apps/versions/2023.01/rocky8/x86_64/generic/software/Gaussian/16.B.01/g16/l103.exe)

 GradGradGradGradGradGradGradGradGradGradGradGradGradGradGradGradGradGrad
 Berny optimization.
 Using GEDIIS/GDIIS optimizer.
 FormGI is forming the generalized inverse of G from B-inverse, IUseBI=4.
 Internal  Forces:  Max     0.003375805 RMS     0.001243697
 Search for a local minimum.
 Step number   3 out of a maximum of  100
 All quantities printed in internal units (Hartrees-Bohrs-Radians)
 RMS Force = .12437D-02 SwitMx=.10000D-02 MixMth= 1
 Mixed Optimization -- RFO/linear search
 Update second derivatives using D2CorX and points    1    3    2
 DE=  2.12D-06 DEPred=-2.46D-04 R=-8.62D-03
 Trust test=-8.62D-03 RLast= 1.23D-01 DXMaxT set to 1.65D-01
 ITU= -1  1  0
 Use linear search instead of GDIIS.
     Eigenvalues ---    0.00603   0.02384   0.03355   0.07085   0.07416
     Eigenvalues ---    0.15747   0.16000   0.16143   0.16612   0.20388
     Eigenvalues ---    0.26124   0.31207   0.34298   0.34373   0.34836
     Eigenvalues ---    0.39059   0.52373   0.91088
 RFO step:  Lambda=-3.41969655D-04 EMin= 6.03430382D-03
 Quartic linear search produced a step of -0.50245.
 Iteration  1 RMS(Cart)=  0.01888670 RMS(Int)=  0.00045879
 Iteration  2 RMS(Cart)=  0.00061200 RMS(Int)=  0.00019409
 Iteration  3 RMS(Cart)=  0.00000013 RMS(Int)=  0.00019409
 ITry= 1 IFail=0 DXMaxC= 5.20D-02 DCOld= 1.00D+10 DXMaxT= 1.65D-01 DXLimC= 3.00D+00 Rises=F
 Variable       Old X    -DE/DX   Delta X   Delta X   Delta X     New X
                                 (Linear)    (Quad)   (Total)
    R1        2.05952   0.00017  -0.00073   0.00194   0.00121   2.06073
    R2        2.07399  -0.00060  -0.00008  -0.00110  -0.00118   2.07281
    R3        2.07382  -0.00018   0.00001  -0.00075  -0.00075   2.07307
    R4        2.87268  -0.00004  -0.00088   0.00102   0.00014   2.87282
    R5        2.27459  -0.00018   0.00452  -0.00928  -0.00477   2.26982
    R6        2.57388   0.00156  -0.01101   0.02558   0.01457   2.58845
    R7        1.82860   0.00338   0.00433  -0.00265   0.00168   1.83028
    A1        1.90433   0.00038   0.00211  -0.00344  -0.00133   1.90300
    A2        1.90418  -0.00034   0.00151  -0.00321  -0.00170   1.90248
    A3        1.90318   0.00031   0.00078  -0.00053   0.00025   1.90343
    A4        1.88094   0.00017  -0.00287   0.00669   0.00382   1.88477
    A5        1.94061  -0.00141  -0.00148  -0.00194  -0.00342   1.93720
    A6        1.93009   0.00089   0.00000   0.00234   0.00235   1.93244
    A7        2.17228   0.00095  -0.00261   0.00772   0.00456   2.17683
    A8        2.01260  -0.00003   0.00814  -0.01781  -0.01023   2.00237
    A9        2.09685  -0.00076  -0.00493   0.01229   0.00680   2.10365
   A10        1.92279   0.00018   0.00153   0.00190   0.00343   1.92622
    D1       -0.00337  -0.00163  -0.02042  -0.01660  -0.03700  -0.04036
    D2        3.08003   0.00146   0.02125   0.02755   0.04878   3.12882
    D3       -2.10386  -0.00142  -0.02262  -0.01077  -0.03337  -2.13723
    D4        0.97954   0.00167   0.01905   0.03338   0.05241   1.03195
    D5        2.09040  -0.00130  -0.01807  -0.01945  -0.03749   2.05291
    D6       -1.10939   0.00179   0.02361   0.02470   0.04829  -1.06110
    D7        0.00824  -0.00093  -0.02691   0.00580  -0.02117  -0.01293
    D8        3.09435   0.00208   0.01279   0.04779   0.06063  -3.12820
         Item               Value     Threshold  Converged?
 Maximum Force            0.003376     0.000450     NO 
 RMS     Force            0.001244     0.000300     NO 
 Maximum Displacement     0.052026     0.001800     NO 
 RMS     Displacement     0.018986     0.001200     NO 
 Predicted change in Energy=-2.926663D-04
 GradGradGradGradGradGradGradGradGradGradGradGradGradGradGradGradGradGrad

 Leave Link  103 at Wed Mar 27 13:54:48 2024, MaxMem=  1073741824 cpu:               0.1 elap:               0.0
 (Enter /apps/versions/2023.01/rocky8/x86_64/generic/software/Gaussian/16.B.01/g16/l202.exe)
                          Input orientation:                          
 ---------------------------------------------------------------------
 Center     Atomic      Atomic             Coordinates (Angstroms)
 Number     Number       Type             X           Y           Z
 ---------------------------------------------------------------------
      1          6           0        0.390115   -4.589366   -1.613447
      2          1           0        0.252438   -5.642063   -1.862542
      3          1           0        1.025079   -4.512700   -0.722329
      4          1           0        0.907845   -4.090903   -2.442271
[...]
 **** Fit      -0.014431
 **** Fit      -0.013236
 **** Fit      -0.012002
 **** Fit      -0.010723
 **** Fit      -0.009394
 **** Fit      -0.008009
 **** Fit      -0.006567
 **** Fit      -0.005063
 **** Fit      -0.003498
 **** Fit      -0.001870
 **** Fit      -0.000180
 **** Fit       0.001572
 **** Fit       0.003382
 **** Fit       0.005247
 **** Fit       0.007163
 **** Fit       0.009123
 **** Fit      -0.024494
 **** Fit      -0.023104
 **** Fit      -0.021811
 **** Fit      -0.020589
 **** Fit      -0.019416
 **** Fit      -0.018271
 **** Fit      -0.017137
 **** Fit      -0.015999
 **** Fit      -0.014845
 **** Fit      -0.013665
 **** Fit      -0.012448
 **** Fit      -0.011189
 **** Fit      -0.009880
 **** Fit      -0.008518
 **** Fit      -0.007099
 **** Fit      -0.005620
 **** Fit      -0.004079
 **** Fit      -0.002475
 **** Fit      -0.000809
 **** Fit       0.000918
 **** Fit       0.002704
 **** Fit       0.004547
 **** Fit       0.006441
 **** Fit       0.008380
 **** Fit       0.010357
 **** Fit      -0.024238
 **** Fit      -0.022855
 **** Fit      -0.021567
 **** Fit      -0.020348
 **** Fit      -0.019174
 **** Fit      -0.018027
 **** Fit      -0.016888
 **** Fit      -0.015743
 **** Fit      -0.014580
 **** Fit      -0.013388
 **** Fit      -0.012157
 **** Fit      -0.010882
 **** Fit      -0.009555
 **** Fit      -0.008173
 **** Fit      -0.006732
 **** Fit      -0.005229
 **** Fit      -0.003663
 **** Fit      -0.002034
 **** Fit      -0.000342
 **** Fit       0.001412
 **** Fit       0.003223
 **** Fit       0.005090
 **** Fit       0.007005
 **** Fit       0.008962
 **** Fit       0.010952
 **** Fit      -0.023860
 **** Fit      -0.022500
 **** Fit      -0.021228
 **** Fit      -0.020020
 **** Fit      -0.018855
 **** Fit      -0.017711
 **** Fit      -0.016574
 **** Fit      -0.015427
 **** Fit      -0.014259
 **** Fit      -0.013059
 **** Fit      -0.011819
 **** Fit      -0.010532
 **** Fit      -0.009192
 **** Fit      -0.007794
 **** Fit      -0.006336
 **** Fit      -0.004816
 **** Fit      -0.003231
 **** Fit      -0.001583
 **** Fit       0.000127
 **** Fit       0.001898
 **** Fit       0.003725
 **** Fit       0.005605
 **** Fit       0.007529
 **** Fit       0.009491
 **** Fit      -0.023359
 **** Fit      -0.022036
 **** Fit      -0.020793
 **** Fit      -0.019606
 **** Fit      -0.018456
 **** Fit      -0.017324
 **** Fit      -0.016193
 **** Fit      -0.015049
 **** Fit      -0.013881
 **** Fit      -0.012679
 **** Fit      -0.011434
 **** Fit      -0.010140
 **** Fit      -0.008791
 **** Fit      -0.007384
 **** Fit      -0.005915
 **** Fit      -0.004383
 **** Fit      -0.002787
 **** Fit      -0.001128
 **** Fit       0.000592
 **** Fit       0.002371
 **** Fit       0.004203
 **** Fit       0.006084
 **** Fit       0.008005
 **** Fit       0.009957
 **** Fit      -0.023494
 **** Fit      -0.022159
 **** Fit      -0.020906
 **** Fit      -0.019713
 **** Fit      -0.018560
 **** Fit      -0.017427
 **** Fit      -0.016298
 **** Fit      -0.015159
 **** Fit      -0.013997
 **** Fit      -0.012801
 **** Fit      -0.011562
 **** Fit      -0.010274
 **** Fit      -0.008930
 **** Fit      -0.007526
 **** Fit      -0.006060
 **** Fit      -0.004529
 **** Fit      -0.002933
 **** Fit      -0.001274
 **** Fit       0.000447
 **** Fit       0.002227
 **** Fit       0.004060
 **** Fit       0.005939
 **** Fit       0.007857
 **** Fit       0.009802
 **** Fit       0.011762
 **** Fit      -0.022142
 **** Fit      -0.020899
 **** Fit      -0.019715
 **** Fit      -0.018570
 **** Fit      -0.017446
 **** Fit      -0.016328
 **** Fit      -0.015200
 **** Fit      -0.014050
 **** Fit      -0.012866
 **** Fit      -0.011640
 **** Fit      -0.010363
 **** Fit      -0.009030
 **** Fit      -0.007636
 **** Fit      -0.006178
 **** Fit      -0.004656
 **** Fit      -0.003067
 **** Fit      -0.001414
 **** Fit       0.000300
 **** Fit       0.002073
 **** Fit       0.003897
 **** Fit       0.005766
 **** Fit       0.007670
 **** Fit       0.009599
 **** Fit       0.011537
 **** Fit      -0.021950
 **** Fit      -0.020744
 **** Fit      -0.019588
 **** Fit      -0.018468
 **** Fit      -0.017366
 **** Fit      -0.016269
 **** Fit      -0.015162
 **** Fit      -0.014031
 **** Fit      -0.012867
 **** Fit      -0.011659
 **** Fit      -0.010401
 **** Fit      -0.009085
 **** Fit      -0.007707
 **** Fit      -0.006265
 **** Fit      -0.004757
 **** Fit      -0.003183
 **** Fit      -0.001544
 **** Fit       0.000156
 **** Fit       0.001913
 **** Fit       0.003720
 **** Fit       0.005570
 **** Fit       0.007451
 **** Fit       0.009352
 **** Fit       0.011257
 **** Fit      -0.019920
 **** Fit      -0.018819
 **** Fit      -0.017737
 **** Fit      -0.016661
 **** Fit      -0.015578
 **** Fit      -0.014476
 **** Fit      -0.013342
 **** Fit      -0.012167
 **** Fit      -0.010942
 **** Fit      -0.009659
 **** Fit      -0.008313
 **** Fit      -0.006901
 **** Fit      -0.005422
 **** Fit      -0.003873
 **** Fit      -0.002257
 **** Fit      -0.000578
 **** Fit       0.001161
 **** Fit       0.002952
 **** Fit       0.004787
 **** Fit       0.006654
 **** Fit       0.008540
 **** Fit       0.010430
 **** Fit       0.012307
 **** Fit      -0.018967
 **** Fit      -0.017936
 **** Fit      -0.016906
 **** Fit      -0.015866
 **** Fit      -0.014806
 **** Fit      -0.013715
 **** Fit      -0.012582
 **** Fit      -0.011400
 **** Fit      -0.010159
 **** Fit      -0.008855
 **** Fit      -0.007482
 **** Fit      -0.006039
 **** Fit      -0.004525
 **** Fit      -0.002940
 **** Fit      -0.001289
 **** Fit       0.000424
 **** Fit       0.002191
 **** Fit       0.004004
 **** Fit       0.005849
 **** Fit       0.007714
 **** Fit       0.009582
 **** Fit       0.011435
 **** Fit       0.013254
 **** Fit      -0.018413
 **** Fit      -0.017471
 **** Fit      -0.016504
 **** Fit      -0.015512
 **** Fit      -0.014486
 **** Fit      -0.013419
 **** Fit      -0.012303
 **** Fit      -0.011128
 **** Fit      -0.009887
 **** Fit      -0.008575
 **** Fit      -0.007189
 **** Fit      -0.005725
 **** Fit      -0.004185
 **** Fit      -0.002572
 **** Fit      -0.000889
 **** Fit       0.000856
 **** Fit       0.002653
 **** Fit       0.004490
 **** Fit       0.006352
 **** Fit       0.008221
 **** Fit       0.010079
 **** Fit       0.011904
 **** Fit       0.013676
 **** Fit      -0.017110
 **** Fit      -0.016296
 **** Fit      -0.015426
 **** Fit      -0.014504
 **** Fit      -0.013528
 **** Fit      -0.012493
 **** Fit      -0.011393
 **** Fit      -0.010223
 **** Fit      -0.008978
 **** Fit      -0.007653
 **** Fit      -0.006247
 **** Fit      -0.004759
 **** Fit      -0.003194
 **** Fit      -0.001555
 **** Fit       0.000150
 **** Fit       0.001909
 **** Fit       0.003710
 **** Fit       0.005537
 **** Fit       0.007372
 **** Fit       0.009193
 **** Fit       0.010979
 **** Fit       0.012708
 **** Fit       0.014359
 **** Fit       0.015914
 **** Fit       0.017358
 **** Fit      -0.015385
 **** Fit      -0.014669
 **** Fit      -0.013862
 **** Fit      -0.012972
 **** Fit      -0.012001
 **** Fit      -0.010947
 **** Fit      -0.009807
 **** Fit      -0.008579
 **** Fit      -0.007260
 **** Fit      -0.005850
 **** Fit      -0.004352
 **** Fit      -0.002769
 **** Fit      -0.001109
 **** Fit       0.000616
 **** Fit       0.002392
 **** Fit       0.004203
 **** Fit       0.006028
 **** Fit       0.007845
 **** Fit       0.009628
 **** Fit       0.011355
 **** Fit       0.013000
 **** Fit       0.014543
 **** Fit       0.015969
 **** Fit       0.017266
 **** Fit      -0.013377
 **** Fit      -0.012676
 **** Fit      -0.011850
 **** Fit      -0.010906
 **** Fit      -0.009849
 **** Fit      -0.008681
 **** Fit      -0.007401
 **** Fit      -0.006012
 **** Fit      -0.004517
 **** Fit      -0.002923
 **** Fit      -0.001242
 **** Fit       0.000513
 **** Fit       0.002323
 **** Fit       0.004165
 **** Fit       0.006014
 **** Fit       0.007839
 **** Fit       0.009612
 **** Fit       0.011303
 **** Fit       0.012884
 **** Fit       0.014334
 **** Fit       0.015636
 **** Fit       0.016778
 **** Fit      -0.011625
 **** Fit      -0.010982
 **** Fit      -0.010174
 **** Fit      -0.009214
 **** Fit      -0.008112
 **** Fit      -0.006873
 **** Fit      -0.005505
 **** Fit      -0.004014
 **** Fit      -0.002414
 **** Fit      -0.000721
 **** Fit       0.001046
 **** Fit       0.002861
 **** Fit       0.004694
 **** Fit       0.006510
 **** Fit       0.008276
 **** Fit       0.009955
 **** Fit       0.011514
 **** Fit       0.012925
 **** Fit       0.014163
 **** Fit       0.015208
 **** Fit      -0.010084
 **** Fit      -0.009600
 **** Fit      -0.008880
 **** Fit      -0.007952
 **** Fit      -0.006833
 **** Fit      -0.005539
 **** Fit      -0.004087
 **** Fit      -0.002494
 **** Fit      -0.000785
 **** Fit       0.001011
 **** Fit       0.002857
 **** Fit       0.004712
 **** Fit       0.006529
 **** Fit       0.008261
 **** Fit       0.009861
 **** Fit       0.011287
 **** Fit       0.012500
 **** Fit       0.013466
 **** Fit      -0.008078
 **** Fit      -0.007486
 **** Fit      -0.006603
 **** Fit      -0.005462
 **** Fit      -0.004095
 **** Fit      -0.002535
 **** Fit      -0.000819
 **** Fit       0.001006
 **** Fit       0.002886
 **** Fit       0.004759
 **** Fit       0.006555
 **** Fit       0.008207
 **** Fit       0.009651
 **** Fit       0.010824
 **** Fit       0.011669
 **** Fit      -0.006381
 **** Fit      -0.005984
 **** Fit      -0.005167
 **** Fit      -0.003993
 **** Fit      -0.002522
 **** Fit      -0.000820
 **** Fit       0.001034
 **** Fit       0.002950
 **** Fit       0.004825
 **** Fit       0.006550
 **** Fit       0.008017
 **** Fit       0.009127
 **** Fit      -0.004353
 **** Fit      -0.003645
 **** Fit      -0.002412
 **** Fit      -0.000783
 **** Fit       0.001094
 **** Fit       0.003045
 **** Fit       0.004875
 **** Fit       0.006385
 **** Fit       0.007388
 **** Fit      -0.002537
 **** Fit      -0.002036
 **** Fit      -0.000685
 **** Fit       0.001184
 **** Fit       0.003152
 **** Fit       0.004749
 **** Fit      -0.000341
 **** Fit       0.001301
 **** Fit       0.003103
 **** Fit       0.016414
 **** Fit       0.017849
 **** Fit       0.019160
 **** Fit       0.020364
 **** Fit       0.015823
 **** Fit       0.017300
 **** Fit       0.018661
 **** Fit       0.019921
 **** Fit       0.021097
 **** Fit       0.015226
 **** Fit       0.016725
 **** Fit       0.018112
 **** Fit       0.019398
 **** Fit       0.020598
 **** Fit       0.021730
 **** Fit       0.022815
 **** Fit       0.014640
 **** Fit       0.016149
 **** Fit       0.017550
 **** Fit       0.018850
 **** Fit       0.020063
 **** Fit       0.021201
 **** Fit       0.022280
 **** Fit       0.023319
 **** Fit       0.014072
 **** Fit       0.015583
 **** Fit       0.016988
 **** Fit       0.018297
 **** Fit       0.019517
 **** Fit       0.020659
 **** Fit       0.021735
 **** Fit       0.022758
 **** Fit       0.023745
 **** Fit       0.013051
 **** Fit       0.014614
 **** Fit       0.016069
 **** Fit       0.017425
 **** Fit       0.018690
 **** Fit       0.019871
 **** Fit       0.020978
 **** Fit       0.022022
 **** Fit       0.023013
 **** Fit       0.023965
 **** Fit       0.024896
 **** Fit       0.012008
 **** Fit       0.013615
 **** Fit       0.015114
 **** Fit       0.016512
 **** Fit       0.017817
 **** Fit       0.019037
 **** Fit       0.020178
 **** Fit       0.021249
 **** Fit       0.022258
 **** Fit       0.023216
 **** Fit       0.024132
 **** Fit       0.025022
 **** Fit       0.025900
 **** Fit       0.012094
 **** Fit       0.013685
 **** Fit       0.015170
 **** Fit       0.016557
 **** Fit       0.017853
 **** Fit       0.019064
 **** Fit       0.020198
 **** Fit       0.021261
 **** Fit       0.022262
 **** Fit       0.023209
 **** Fit       0.024111
 **** Fit       0.024978
 **** Fit       0.025824
 **** Fit       0.026663
 **** Fit       0.012163
 **** Fit       0.013732
 **** Fit       0.015199
 **** Fit       0.016570
 **** Fit       0.017852
 **** Fit       0.019051
 **** Fit       0.020175
 **** Fit       0.021229
 **** Fit       0.022220
 **** Fit       0.023156
 **** Fit       0.024044
 **** Fit       0.024893
 **** Fit       0.025712
 **** Fit       0.026512
 **** Fit       0.011698
 **** Fit       0.013295
 **** Fit       0.014788
 **** Fit       0.016184
 **** Fit       0.017490
 **** Fit       0.018711
 **** Fit       0.019855
 **** Fit       0.020928
 **** Fit       0.021936
 **** Fit       0.022884
 **** Fit       0.023781
 **** Fit       0.024633
 **** Fit       0.025447
 **** Fit       0.026233
 **** Fit       0.027000
 **** Fit       0.011206
 **** Fit       0.012825
 **** Fit       0.014339
 **** Fit       0.015756
 **** Fit       0.017081
 **** Fit       0.018321
 **** Fit       0.019483
 **** Fit       0.020573
 **** Fit       0.021595
 **** Fit       0.022557
 **** Fit       0.023464
 **** Fit       0.024322
 **** Fit       0.025138
 **** Fit       0.025918
 **** Fit       0.026670
 **** Fit       0.027402
 **** Fit       0.012328
 **** Fit       0.013857
 **** Fit       0.015289
 **** Fit       0.016629
 **** Fit       0.017885
 **** Fit       0.019062
 **** Fit       0.020166
 **** Fit       0.021203
 **** Fit       0.022177
 **** Fit       0.023094
 **** Fit       0.023961
 **** Fit       0.024781
 **** Fit       0.025562
 **** Fit       0.026309
 **** Fit       0.027029
 **** Fit       0.027728
 **** Fit       0.011285
 **** Fit       0.012877
 **** Fit       0.014367
 **** Fit       0.015762
 **** Fit       0.017069
 **** Fit       0.018294
 **** Fit       0.019443
 **** Fit       0.020520
 **** Fit       0.021533
 **** Fit       0.022485
 **** Fit       0.023382
 **** Fit       0.024229
 **** Fit       0.025032
 **** Fit       0.025795
 **** Fit       0.026525
 **** Fit       0.027226
 **** Fit       0.027906
 **** Fit       0.011309
 **** Fit       0.012907
 **** Fit       0.014402
 **** Fit       0.015802
 **** Fit       0.017113
 **** Fit       0.018341
 **** Fit       0.019493
 **** Fit       0.020573
 **** Fit       0.021587
 **** Fit       0.022541
 **** Fit       0.023439
 **** Fit       0.024287
 **** Fit       0.025089
 **** Fit       0.025852
 **** Fit       0.026580
 **** Fit       0.027278
 **** Fit       0.027953
 **** Fit       0.011307
 **** Fit       0.012905
 **** Fit       0.014400
 **** Fit       0.015800
 **** Fit       0.017111
 **** Fit       0.018340
 **** Fit       0.019491
 **** Fit       0.020571
 **** Fit       0.021586
 **** Fit       0.022539
 **** Fit       0.023437
 **** Fit       0.024285
 **** Fit       0.025088
 **** Fit       0.025851
 **** Fit       0.026579
 **** Fit       0.027277
 **** Fit       0.027952
 **** Fit       0.011279
 **** Fit       0.012871
 **** Fit       0.014361
 **** Fit       0.015757
 **** Fit       0.017064
 **** Fit       0.018289
 **** Fit       0.019438
 **** Fit       0.020516
 **** Fit       0.021528
 **** Fit       0.022481
 **** Fit       0.023378
 **** Fit       0.024225
 **** Fit       0.025028
 **** Fit       0.025792
 **** Fit       0.026522
 **** Fit       0.027223
 **** Fit       0.027903
 **** Fit       0.012318
 **** Fit       0.013847
 **** Fit       0.015280
 **** Fit       0.016621
 **** Fit       0.017877
 **** Fit       0.019054
 **** Fit       0.020159
 **** Fit       0.021195
 **** Fit       0.022170
 **** Fit       0.023088
 **** Fit       0.023954
 **** Fit       0.024775
 **** Fit       0.025556
 **** Fit       0.026304
 **** Fit       0.027023
 **** Fit       0.027723
 **** Fit       0.011192
 **** Fit       0.012812
 **** Fit       0.014326
 **** Fit       0.015743
 **** Fit       0.017069
 **** Fit       0.018310
 **** Fit       0.019472
 **** Fit       0.020562
 **** Fit       0.021585
 **** Fit       0.022548
 **** Fit       0.023455
 **** Fit       0.024313
 **** Fit       0.025129
 **** Fit       0.025910
 **** Fit       0.026662
 **** Fit       0.027396
 **** Fit       0.011679
 **** Fit       0.013278
 **** Fit       0.014772
 **** Fit       0.016169
 **** Fit       0.017475
 **** Fit       0.018697
 **** Fit       0.019842
 **** Fit       0.020915
 **** Fit       0.021923
 **** Fit       0.022872
 **** Fit       0.023770
 **** Fit       0.024622
 **** Fit       0.025437
 **** Fit       0.026223
 **** Fit       0.026991
 **** Fit       0.012141
 **** Fit       0.013711
 **** Fit       0.015179
 **** Fit       0.016551
 **** Fit       0.017834
 **** Fit       0.019034
 **** Fit       0.020158
 **** Fit       0.021213
 **** Fit       0.022205
 **** Fit       0.023142
 **** Fit       0.024031
 **** Fit       0.024880
 **** Fit       0.025700
 **** Fit       0.026501
 **** Fit       0.012068
 **** Fit       0.013660
 **** Fit       0.015147
 **** Fit       0.016535
 **** Fit       0.017832
 **** Fit       0.019044
 **** Fit       0.020178
 **** Fit       0.021243
 **** Fit       0.022245
 **** Fit       0.023193
 **** Fit       0.024095
 **** Fit       0.024963
 **** Fit       0.025810
 **** Fit       0.026650
 **** Fit       0.013587
 **** Fit       0.015087
 **** Fit       0.016487
 **** Fit       0.017793
 **** Fit       0.019014
 **** Fit       0.020156
 **** Fit       0.021228
 **** Fit       0.022238
 **** Fit       0.023197
 **** Fit       0.024115
 **** Fit       0.025005
 **** Fit       0.025885
 **** Fit       0.013019
 **** Fit       0.014583
 **** Fit       0.016040
 **** Fit       0.017398
 **** Fit       0.018664
 **** Fit       0.019846
 **** Fit       0.020955
 **** Fit       0.022000
 **** Fit       0.022992
 **** Fit       0.023946
 **** Fit       0.024877
 **** Fit       0.014038
 **** Fit       0.015551
 **** Fit       0.016958
 **** Fit       0.018268
 **** Fit       0.019489
 **** Fit       0.020633
 **** Fit       0.021710
 **** Fit       0.022735
 **** Fit       0.023723
 **** Fit       0.014604
 **** Fit       0.016115
 **** Fit       0.017517
 **** Fit       0.018820
 **** Fit       0.020034
 **** Fit       0.021174
 **** Fit       0.022255
 **** Fit       0.023296
 **** Fit       0.015188
 **** Fit       0.016689
 **** Fit       0.018078
 **** Fit       0.019366
 **** Fit       0.020569
 **** Fit       0.021702
 **** Fit       0.022789
 **** Fit       0.015783
 **** Fit       0.017263
 **** Fit       0.018626
 **** Fit       0.019888
 **** Fit       0.021067
 **** Fit       0.016374
 **** Fit       0.017811
 **** Fit       0.019125
 **** Fit       0.020332
 -----------------------------------------------------------------
 Leave Link  602 at Wed Mar 27 13:56:01 2024, MaxMem=   104857600 cpu:               0.4 elap:               0.4
 (Enter /apps/versions/2023.01/rocky8/x86_64/generic/software/Gaussian/16.B.01/g16/l9999.exe)

 Test job not archived.
 1\1\GINC-LOGIN1\SP\RHF\6-31G(d)\C2H4O2\P315462\27-Mar-2024\0\\#P HF/6-
 31G* SCF=(Tight,MaxCycle=900) Geom=AllCheck Guess=Read Pop=MK IOp(6/33
 =2,6/41=10,6/42=17)\\Protonated Aspartate\\0,1\C,0,0.3908522323,-4.591
 2096428,-1.6149818503\H,0,0.2523966224,-5.6401899063,-1.8773269934\H,0
 ,1.0165495196,-4.5247460292,-0.7166035987\H,0,0.9194719631,-4.08340539
 49,-2.4309177113\C,0,-0.9663484224,-3.9520734809,-1.3735631239\O,0,-2.
 0208797713,-4.5248012719,-1.4621216627\O,0,-0.9348355991,-2.6307067219
 ,-1.034005344\H,0,-0.0172065447,-2.3138675521,-1.0054797157\\Version=E
 S64L-G16RevB.01\State=1-A\HF=-227.7965025\RMSD=4.490e-09\Dipole=1.8959
 521,0.2565674,-0.0416701\Quadrupole=-0.9505912,0.3098638,0.6407273,0.5
 814859,0.2402759,-0.1349575\PG=C01 [X(C2H4O2)]\\@


 Discoveries are often made by not following instructions,
 by going off the main road, by trying the untried.
 -- Frank Tyger
 Job cpu time:       0 days  0 hours  0 minutes  1.6 seconds.
 Elapsed time:       0 days  0 hours  0 minutes  1.6 seconds.
 File lengths (MBytes):  RWF=     17 Int=      0 D2E=      0 Chk=      2 Scr=      2
 Normal termination of Gaussian 16 at Wed Mar 27 13:56:01 2024.
