 Entering Gaussian System, Link 0=g16
 Input=ASP.com
 Output=ASP.log
 Initial command:
 /apps/versions/2023.01/rocky8/x86_64/generic/software/Gaussian/16.B.01/g16/l1.exe "/home3/p315462/Project/evb_solvent/reactant/ASP/Gau-1115936.inp" -scrdir="/home3/p315462/Project/evb_solvent/reactant/ASP/"
 Entering Link 1 = /apps/versions/2023.01/rocky8/x86_64/generic/software/Gaussian/16.B.01/g16/l1.exe PID=   1115939.
  
 Copyright (c) 1988-2017, Gaussian, Inc.  All Rights Reserved.
  
 This is part of the Gaussian(R) 16 program.  It is based on
 the Gaussian(R) 09 system (copyright 2009, Gaussian, Inc.),
 the Gaussian(R) 03 system (copyright 2003, Gaussian, Inc.),
 the Gaussian(R) 98 system (copyright 1998, Gaussian, Inc.),
 the Gaussian(R) 94 system (copyright 1995, Gaussian, Inc.),
 the Gaussian 92(TM) system (copyright 1992, Gaussian, Inc.),
 the Gaussian 90(TM) system (copyright 1990, Gaussian, Inc.),
 the Gaussian 88(TM) system (copyright 1988, Gaussian, Inc.),
 the Gaussian 86(TM) system (copyright 1986, Carnegie Mellon
 University), and the Gaussian 82(TM) system (copyright 1983,
 Carnegie Mellon University). Gaussian is a federally registered
 trademark of Gaussian, Inc.
  
 This software contains proprietary and confidential information,
 including trade secrets, belonging to Gaussian, Inc.
  
 This software is provided under written license and may be
 used, copied, transmitted, or stored only in accord with that
 written license.
  
 The following legend is applicable only to US Government
 contracts under FAR:
  
                    RESTRICTED RIGHTS LEGEND
  
 Use, reproduction and disclosure by the US Government is
 subject to restrictions as set forth in subparagraphs (a)
 and (c) of the Commercial Computer Software - Restricted
 Rights clause in FAR 52.227-19.
  
 Gaussian, Inc.
 340 Quinnipiac St., Bldg. 40, Wallingford CT 06492
  
  
 ---------------------------------------------------------------
 Warning -- This program may not be used in any manner that
 competes with the business of Gaussian, Inc. or will provide
 assistance to any competitor of Gaussian, Inc.  The licensee
 of this program is prohibited from giving any competitor of
 Gaussian, Inc. access to this program.  By using this program,
 the user acknowledges that Gaussian, Inc. is engaged in the
 business of creating and licensing software in the field of
 computational chemistry and represents and warrants to the
 licensee that it is not a competitor of Gaussian, Inc. and that
 it will not use this program in any manner prohibited above.
 ---------------------------------------------------------------
  

 Cite this work as:
 Gaussian 16, Revision B.01,
 M. J. Frisch, G. W. Trucks, H. B. Schlegel, G. E. Scuseria, 
 M. A. Robb, J. R. Cheeseman, G. Scalmani, V. Barone, 
 G. A. Petersson, H. Nakatsuji, X. Li, M. Caricato, A. V. Marenich, 
 J. Bloino, B. G. Janesko, R. Gomperts, B. Mennucci, H. P. Hratchian, 
 J. V. Ortiz, A. F. Izmaylov, J. L. Sonnenberg, D. Williams-Young, 
 F. Ding, F. Lipparini, F. Egidi, J. Goings, B. Peng, A. Petrone, 
 T. Henderson, D. Ranasinghe, V. G. Zakrzewski, J. Gao, N. Rega, 
 G. Zheng, W. Liang, M. Hada, M. Ehara, K. Toyota, R. Fukuda, 
 J. Hasegawa, M. Ishida, T. Nakajima, Y. Honda, O. Kitao, H. Nakai, 
 T. Vreven, K. Throssell, J. A. Montgomery, Jr., J. E. Peralta, 
 F. Ogliaro, M. J. Bearpark, J. J. Heyd, E. N. Brothers, K. N. Kudin, 
 V. N. Staroverov, T. A. Keith, R. Kobayashi, J. Normand, 
 K. Raghavachari, A. P. Rendell, J. C. Burant, S. S. Iyengar, 
 J. Tomasi, M. Cossi, J. M. Millam, M. Klene, C. Adamo, R. Cammi, 
 J. W. Ochterski, R. L. Martin, K. Morokuma, O. Farkas, 
 J. B. Foresman, and D. J. Fox, Gaussian, Inc., Wallingford CT, 2016.
 
 ******************************************
 Gaussian 16:  ES64L-G16RevB.01 20-Dec-2017
                27-Mar-2024 
 ******************************************
 %Mem=8192MB
 %NProcShared=8
 Will use up to    8 processors via shared memory.
 %chk=098457434.chk
 ----------------------------------
 #P B3LYP/6-31g* Opt=(MaxCycle=900)
 ----------------------------------
 1/6=900,18=20,19=15,26=3,38=1/1,3;
 2/9=110,12=2,17=6,18=5,40=1/2;
 3/5=1,6=6,7=1,11=2,25=1,30=1,71=1,74=-5/1,2,3;
 4//1;
 5/5=2,38=5/2;
 6/7=2,8=2,9=2,10=2,28=1/1;
 7//1,2,3,16;
 1/6=900,18=20,19=15,26=3/3(2);
 2/9=110/2;
 99//99;
 2/9=110/2;
 3/5=1,6=6,7=1,11=2,25=1,30=1,71=1,74=-5/1,2,3;
 4/5=5,16=3,69=1/1;
 5/5=2,38=5/2;
 7//1,2,3,16;
 1/6=900,18=20,19=15,26=3/3(-5);
 2/9=110/2;
 6/7=2,8=2,9=2,10=2,19=2,28=1/1;
 99/9=1/99;
 Leave Link    1 at Wed Mar 27 13:50:02 2024, MaxMem=  1073741824 cpu:               0.9 elap:               0.4
 (Enter /apps/versions/2023.01/rocky8/x86_64/generic/software/Gaussian/16.B.01/g16/l101.exe)
 ----------------------
 Deprotonated Aspartate
 ----------------------
 Symbolic Z-matrix:
 Charge = -1 Multiplicity = 1
 C                    -4.423     2.333     2.958 
 H                    -5.342     2.481     3.526 
 H                    -4.203     3.233     2.374 
 H                    -3.584     2.184     3.646 
 C                    -4.546     1.133     2.024 
 O                    -5.629     0.507     1.987 
 O                    -3.513     0.851     1.318 
 
 ITRead=  0  0  0  0  0  0  0
 MicOpt= -1 -1 -1 -1 -1 -1 -1
 NAtoms=      7 NQM=        7 NQMF=       0 NMMI=      0 NMMIF=      0
                NMic=       0 NMicF=      0.
                    Isotopes and Nuclear Properties:
 (Nuclear quadrupole moments (NQMom) in fm**2, nuclear magnetic moments (NMagM)
  in nuclear magnetons)

  Atom         1           2           3           4           5           6           7
 IAtWgt=          12           1           1           1          12          16          16
 AtmWgt=  12.0000000   1.0078250   1.0078250   1.0078250  12.0000000  15.9949146  15.9949146
 NucSpn=           0           1           1           1           0           0           0
 AtZEff=  -0.0000000  -0.0000000  -0.0000000  -0.0000000  -0.0000000  -0.0000000  -0.0000000
 NQMom=    0.0000000   0.0000000   0.0000000   0.0000000   0.0000000   0.0000000   0.0000000
 NMagM=    0.0000000   2.7928460   2.7928460   2.7928460   0.0000000   0.0000000   0.0000000
 AtZNuc=   6.0000000   1.0000000   1.0000000   1.0000000   6.0000000   8.0000000   8.0000000
 Leave Link  101 at Wed Mar 27 13:50:05 2024, MaxMem=  1073741824 cpu:               6.0 elap:               2.9
 (Enter /apps/versions/2023.01/rocky8/x86_64/generic/software/Gaussian/16.B.01/g16/l103.exe)

 GradGradGradGradGradGradGradGradGradGradGradGradGradGradGradGradGradGrad
 Berny optimization.
 Initialization pass.
                           ----------------------------
                           !    Initial Parameters    !
                           ! (Angstroms and Degrees)  !
 --------------------------                            --------------------------
 ! Name  Definition              Value          Derivative Info.                !
 --------------------------------------------------------------------------------
 ! R1    R(1,2)                  1.0905         estimate D2E/DX2                !
 ! R2    R(1,3)                  1.0952         estimate D2E/DX2                !
 ! R3    R(1,4)                  1.0952         estimate D2E/DX2                !
 ! R4    R(1,5)                  1.5256         estimate D2E/DX2                !
 ! R5    R(5,6)                  1.2515         estimate D2E/DX2                !
 ! R6    R(5,7)                  1.2826         estimate D2E/DX2                !
 ! A1    A(2,1,3)              109.6038         estimate D2E/DX2                !
 ! A2    A(2,1,4)              109.6861         estimate D2E/DX2                !
 ! A3    A(2,1,5)              110.9591         estimate D2E/DX2                !
 ! A4    A(3,1,4)              107.0311         estimate D2E/DX2                !
 ! A5    A(3,1,5)              109.6407         estimate D2E/DX2                !
 ! A6    A(4,1,5)              109.8368         estimate D2E/DX2                !
 ! A7    A(1,5,6)              118.7722         estimate D2E/DX2                !
 ! A8    A(1,5,7)              116.4232         estimate D2E/DX2                !
 ! A9    A(6,5,7)              124.8013         estimate D2E/DX2                !
 ! D1    D(2,1,5,6)              1.6438         estimate D2E/DX2                !
 ! D2    D(2,1,5,7)           -178.9845         estimate D2E/DX2                !
 ! D3    D(3,1,5,6)           -119.5667         estimate D2E/DX2                !
 ! D4    D(3,1,5,7)             59.805          estimate D2E/DX2                !
 ! D5    D(4,1,5,6)            123.0883         estimate D2E/DX2                !
 ! D6    D(4,1,5,7)            -57.54           estimate D2E/DX2                !
 --------------------------------------------------------------------------------
 Trust Radius=3.00D-01 FncErr=1.00D-07 GrdErr=1.00D-06 EigMax=2.50D+02 EigMin=1.00D-04
 Number of steps in this run=    100 maximum allowed number of steps=    100.
 GradGradGradGradGradGradGradGradGradGradGradGradGradGradGradGradGradGrad

 Leave Link  103 at Wed Mar 27 13:50:05 2024, MaxMem=  1073741824 cpu:               0.1 elap:               0.0
 (Enter /apps/versions/2023.01/rocky8/x86_64/generic/software/Gaussian/16.B.01/g16/l202.exe)
                          Input orientation:                          
 ---------------------------------------------------------------------
 Center     Atomic      Atomic             Coordinates (Angstroms)
 Number     Number       Type             X           Y           Z
 ---------------------------------------------------------------------
      1          6           0       -4.423000    2.333000    2.958000
      2          1           0       -5.342000    2.481000    3.526000
      3          1           0       -4.203000    3.233000    2.374000
      4          1           0       -3.584000    2.184000    3.646000
      5          6           0       -4.546000    1.133000    2.024000
      6          8           0       -5.629000    0.507000    1.987000
      7          8           0       -3.513000    0.851000    1.318000
 ---------------------------------------------------------------------
                    Distance matrix (angstroms):
                    1          2          3          4          5
     1  C    0.000000
     2  H    1.090454   0.000000
     3  H    1.095197   1.786037   0.000000
     4  H    1.095201   1.786945   1.761121   0.000000
     5  C    1.525610   2.169499   2.156420   2.158918   0.000000
     6  O    2.394066   2.519438   3.100697   3.121960   1.251453
     7  O    2.390402   3.298091   2.695396   2.683564   1.282595
                    6          7
     6  O    0.000000
     7  O    2.245741   0.000000
 Stoichiometry    C2H3O2(1-)
 Framework group  C1[X(C2H3O2)]
 Deg. of freedom    15
 Full point group                 C1      NOp   1
 Largest Abelian subgroup         C1      NOp   1
 Largest concise Abelian subgroup C1      NOp   1
                         Standard orientation:                         
 ---------------------------------------------------------------------
 Center     Atomic      Atomic             Coordinates (Angstroms)
 Number     Number       Type             X           Y           Z
 ---------------------------------------------------------------------
      1          6           0        1.348889   -0.022192    0.000123
      2          1           0        1.733615   -1.042276   -0.022300
      3          1           0        1.717437    0.489932    0.895309
      4          1           0        1.725690    0.533329   -0.865258
      5          6           0       -0.176694   -0.014124   -0.003770
      6          8           0       -0.784861   -1.107853    0.000935
      7          8           0       -0.741378    1.137467    0.000832
 ---------------------------------------------------------------------
 Rotational constants (GHZ):          11.6124639           9.9145019           5.5312497
 Leave Link  202 at Wed Mar 27 13:50:05 2024, MaxMem=  1073741824 cpu:               0.0 elap:               0.0
 (Enter /apps/versions/2023.01/rocky8/x86_64/generic/software/Gaussian/16.B.01/g16/l301.exe)
 Standard basis: 6-31G(d) (6D, 7F)
 Ernie: Thresh=  0.10000D-02 Tol=  0.10000D-05 Strict=F.
 There are    66 symmetry adapted cartesian basis functions of A   symmetry.
 There are    66 symmetry adapted basis functions of A   symmetry.
    66 basis functions,   124 primitive gaussians,    66 cartesian basis functions
    16 alpha electrons       16 beta electrons
       nuclear repulsion energy       111.7470453507 Hartrees.
 IExCor=  402 DFT=T Ex+Corr=B3LYP ExCW=0 ScaHFX=  0.200000
 ScaDFX=  0.800000  0.720000  1.000000  0.810000 ScalE2=  1.000000  1.000000
 IRadAn=      5 IRanWt=     -1 IRanGd=            0 ICorTp=0 IEmpDi=  4
 NAtoms=    7 NActive=    7 NUniq=    7 SFac= 1.00D+00 NAtFMM=   60 NAOKFM=F Big=F
 Integral buffers will be    131072 words long.
 Raffenetti 2 integral format.
 Two-electron integral symmetry is turned on.
 Leave Link  301 at Wed Mar 27 13:50:06 2024, MaxMem=  1073741824 cpu:               0.6 elap:               0.2
 (Enter /apps/versions/2023.01/rocky8/x86_64/generic/software/Gaussian/16.B.01/g16/l302.exe)
 NPDir=0 NMtPBC=     1 NCelOv=     1 NCel=       1 NClECP=     1 NCelD=      1
         NCelK=      1 NCelE2=     1 NClLst=     1 CellRange=     0.0.
 One-electron integrals computed using PRISM.
 One-electron integral symmetry used in STVInt
 NBasis=    66 RedAO= T EigKep=  4.68D-03  NBF=    66
 NBsUse=    66 1.00D-06 EigRej= -1.00D+00 NBFU=    66
 Precomputing XC quadrature grid using
 IXCGrd= 4 IRadAn=           5 IRanWt=          -1 IRanGd=           0 AccXCQ= 0.00D+00.
 Generated NRdTot=       0 NPtTot=           0 NUsed=           0 NTot=          32
 NSgBfM=    66    66    66    66    66 MxSgAt=     7 MxSgA2=     7.
 Leave Link  302 at Wed Mar 27 13:50:06 2024, MaxMem=  1073741824 cpu:               1.4 elap:               0.7
 (Enter /apps/versions/2023.01/rocky8/x86_64/generic/software/Gaussian/16.B.01/g16/l303.exe)
 DipDrv:  MaxL=1.
 Leave Link  303 at Wed Mar 27 13:50:06 2024, MaxMem=  1073741824 cpu:               0.3 elap:               0.1
 (Enter /apps/versions/2023.01/rocky8/x86_64/generic/software/Gaussian/16.B.01/g16/l401.exe)
 ExpMin= 1.61D-01 ExpMax= 5.48D+03 ExpMxC= 8.25D+02 IAcc=3 IRadAn=         5 AccDes= 0.00D+00
 Harris functional with IExCor=  402 and IRadAn=       5 diagonalized for initial guess.
 HarFok:  IExCor=  402 AccDes= 0.00D+00 IRadAn=         5 IDoV= 1 UseB2=F ITyADJ=14
 ICtDFT=  3500011 ScaDFX=  1.000000  1.000000  1.000000  1.000000
 FoFCou: FMM=F IPFlag=           0 FMFlag=      100000 FMFlg1=           0
         NFxFlg=           0 DoJE=T BraDBF=F KetDBF=T FulRan=T
         wScrn=  0.000000 ICntrl=       500 IOpCl=  0 I1Cent=   200000004 NGrid=           0
         NMat0=    1 NMatS0=      1 NMatT0=    0 NMatD0=    1 NMtDS0=    0 NMtDT0=    0
 Petite list used in FoFCou.
 Harris En= -228.739642630901    
 JPrj=0 DoOrth=F DoCkMO=F.
 Leave Link  401 at Wed Mar 27 13:50:07 2024, MaxMem=  1073741824 cpu:               2.0 elap:               0.9
 (Enter /apps/versions/2023.01/rocky8/x86_64/generic/software/Gaussian/16.B.01/g16/l502.exe)
 Keep R1 ints in memory in canonical form, NReq=9560181.
 FoFCou: FMM=F IPFlag=           0 FMFlag=           0 FMFlg1=           0
         NFxFlg=           0 DoJE=F BraDBF=F KetDBF=F FulRan=T
         wScrn=  0.000000 ICntrl=       600 IOpCl=  0 I1Cent=           0 NGrid=           0
         NMat0=    1 NMatS0=   2211 NMatT0=    0 NMatD0=    1 NMtDS0=    0 NMtDT0=    0
 Symmetry not used in FoFCou.
 Two-electron integral symmetry not used.
 Closed shell SCF:
 Using DIIS extrapolation, IDIIS=  1040.
 NGot=  1073741824 LenX=  1071286351 LenY=  1071281554
 Requested convergence on RMS density matrix=1.00D-08 within 128 cycles.
 Requested convergence on MAX density matrix=1.00D-06.
 Requested convergence on             energy=1.00D-06.
 No special actions if energy rises.
 Integral accuracy reduced to 1.0D-05 until final iterations.

 Cycle   1  Pass 0  IDiag  1:
 E= -228.277428517630    
 DIIS: error= 5.04D-02 at cycle   1 NSaved=   1.
 NSaved= 1 IEnMin= 1 EnMin= -228.277428517630     IErMin= 1 ErrMin= 5.04D-02
 ErrMax= 5.04D-02  0.00D+00 EMaxC= 1.00D-01 BMatC= 2.59D-01 BMatP= 2.59D-01
 IDIUse=3 WtCom= 4.96D-01 WtEn= 5.04D-01
 Coeff-Com:  0.100D+01
 Coeff-En:   0.100D+01
 Coeff:      0.100D+01
 Gap=     0.156 Goal=   None    Shift=    0.000
 GapD=    0.156 DampG=1.000 DampE=0.500 DampFc=0.5000 IDamp=-1.
 Damping current iteration by 5.00D-01
 RMSDP=2.26D-02 MaxDP=5.29D-01              OVMax= 2.87D-01

 Cycle   2  Pass 0  IDiag  1:
 E= -228.360050798597     Delta-E=       -0.082622280966 Rises=F Damp=T
 DIIS: error= 1.15D-02 at cycle   2 NSaved=   2.
 NSaved= 2 IEnMin= 2 EnMin= -228.360050798597     IErMin= 2 ErrMin= 1.15D-02
 ErrMax= 1.15D-02  0.00D+00 EMaxC= 1.00D-01 BMatC= 1.88D-02 BMatP= 2.59D-01
 IDIUse=3 WtCom= 8.85D-01 WtEn= 1.15D-01
 Coeff-Com:  0.165D+00 0.835D+00
 Coeff-En:   0.241D+00 0.759D+00
 Coeff:      0.174D+00 0.826D+00
 Gap=     0.263 Goal=   None    Shift=    0.000
 RMSDP=4.77D-03 MaxDP=1.55D-01 DE=-8.26D-02 OVMax= 1.86D-01

 Cycle   3  Pass 0  IDiag  1:
 E= -228.486223701900     Delta-E=       -0.126172903303 Rises=F Damp=F
 DIIS: error= 1.25D-02 at cycle   3 NSaved=   3.
 NSaved= 3 IEnMin= 3 EnMin= -228.486223701900     IErMin= 2 ErrMin= 1.15D-02
 ErrMax= 1.25D-02  0.00D+00 EMaxC= 1.00D-01 BMatC= 9.56D-03 BMatP= 1.88D-02
 IDIUse=3 WtCom= 8.75D-01 WtEn= 1.25D-01
 Coeff-Com:  0.680D-01 0.436D+00 0.496D+00
 Coeff-En:   0.000D+00 0.000D+00 0.100D+01
 Coeff:      0.595D-01 0.382D+00 0.559D+00
 Gap=     0.252 Goal=   None    Shift=    0.000
 RMSDP=1.75D-03 MaxDP=2.13D-02 DE=-1.26D-01 OVMax= 3.48D-02

 Cycle   4  Pass 0  IDiag  1:
 E= -228.493807777968     Delta-E=       -0.007584076068 Rises=F Damp=F
 DIIS: error= 4.36D-03 at cycle   4 NSaved=   4.
 NSaved= 4 IEnMin= 4 EnMin= -228.493807777968     IErMin= 4 ErrMin= 4.36D-03
 ErrMax= 4.36D-03  0.00D+00 EMaxC= 1.00D-01 BMatC= 1.49D-03 BMatP= 9.56D-03
 IDIUse=3 WtCom= 9.56D-01 WtEn= 4.36D-02
 Coeff-Com:  0.126D-01 0.202D-01 0.276D+00 0.692D+00
 Coeff-En:   0.000D+00 0.000D+00 0.112D+00 0.888D+00
 Coeff:      0.121D-01 0.193D-01 0.269D+00 0.700D+00
 Gap=     0.259 Goal=   None    Shift=    0.000
 RMSDP=6.23D-04 MaxDP=8.68D-03 DE=-7.58D-03 OVMax= 1.32D-02

 Cycle   5  Pass 0  IDiag  1:
 E= -228.494873140153     Delta-E=       -0.001065362185 Rises=F Damp=F
 DIIS: error= 2.02D-03 at cycle   5 NSaved=   5.
 NSaved= 5 IEnMin= 5 EnMin= -228.494873140153     IErMin= 5 ErrMin= 2.02D-03
 ErrMax= 2.02D-03  0.00D+00 EMaxC= 1.00D-01 BMatC= 2.44D-04 BMatP= 1.49D-03
 IDIUse=3 WtCom= 9.80D-01 WtEn= 2.02D-02
 Coeff-Com:  0.578D-02-0.771D-02 0.162D+00 0.477D+00 0.363D+00
 Coeff-En:   0.000D+00 0.000D+00 0.000D+00 0.441D-01 0.956D+00
 Coeff:      0.566D-02-0.756D-02 0.158D+00 0.469D+00 0.375D+00
 Gap=     0.258 Goal=   None    Shift=    0.000
 RMSDP=2.49D-04 MaxDP=3.42D-03 DE=-1.07D-03 OVMax= 7.44D-03

 Cycle   6  Pass 0  IDiag  1:
 E= -228.495055265642     Delta-E=       -0.000182125490 Rises=F Damp=F
 DIIS: error= 3.95D-04 at cycle   6 NSaved=   6.
 NSaved= 6 IEnMin= 6 EnMin= -228.495055265642     IErMin= 6 ErrMin= 3.95D-04
 ErrMax= 3.95D-04  0.00D+00 EMaxC= 1.00D-01 BMatC= 1.10D-05 BMatP= 2.44D-04
 IDIUse=3 WtCom= 9.96D-01 WtEn= 3.95D-03
 Coeff-Com:  0.233D-02-0.678D-02 0.651D-01 0.201D+00 0.224D+00 0.515D+00
 Coeff-En:   0.000D+00 0.000D+00 0.000D+00 0.000D+00 0.000D+00 0.100D+01
 Coeff:      0.232D-02-0.675D-02 0.648D-01 0.200D+00 0.223D+00 0.517D+00
 Gap=     0.257 Goal=   None    Shift=    0.000
 RMSDP=5.14D-05 MaxDP=6.81D-04 DE=-1.82D-04 OVMax= 1.29D-03

 Cycle   7  Pass 0  IDiag  1:
 E= -228.495063914451     Delta-E=       -0.000008648808 Rises=F Damp=F
 DIIS: error= 4.27D-05 at cycle   7 NSaved=   7.
 NSaved= 7 IEnMin= 7 EnMin= -228.495063914451     IErMin= 7 ErrMin= 4.27D-05
 ErrMax= 4.27D-05  0.00D+00 EMaxC= 1.00D-01 BMatC= 2.41D-07 BMatP= 1.10D-05
 IDIUse=1 WtCom= 1.00D+00 WtEn= 0.00D+00
 Coeff-Com:  0.456D-03-0.165D-02 0.883D-02 0.267D-01 0.472D-01 0.191D+00
 Coeff-Com:  0.728D+00
 Coeff:      0.456D-03-0.165D-02 0.883D-02 0.267D-01 0.472D-01 0.191D+00
 Coeff:      0.728D+00
 Gap=     0.257 Goal=   None    Shift=    0.000
 RMSDP=1.23D-05 MaxDP=2.79D-04 DE=-8.65D-06 OVMax= 1.44D-04

 Cycle   8  Pass 0  IDiag  1:
 E= -228.495064138540     Delta-E=       -0.000000224089 Rises=F Damp=F
 DIIS: error= 4.42D-06 at cycle   8 NSaved=   8.
 NSaved= 8 IEnMin= 8 EnMin= -228.495064138540     IErMin= 8 ErrMin= 4.42D-06
 ErrMax= 4.42D-06  0.00D+00 EMaxC= 1.00D-01 BMatC= 1.45D-09 BMatP= 2.41D-07
 IDIUse=1 WtCom= 1.00D+00 WtEn= 0.00D+00
 Coeff-Com: -0.157D-04 0.618D-04-0.123D-02-0.406D-02-0.409D-02-0.669D-02
 Coeff-Com:  0.481D-01 0.968D+00
 Coeff:     -0.157D-04 0.618D-04-0.123D-02-0.406D-02-0.409D-02-0.669D-02
 Coeff:      0.481D-01 0.968D+00
 Gap=     0.257 Goal=   None    Shift=    0.000
 RMSDP=1.21D-06 MaxDP=1.99D-05 DE=-2.24D-07 OVMax= 1.42D-05

 Initial convergence to 1.0D-05 achieved.  Increase integral accuracy.
 Cycle   9  Pass 1  IDiag  1:
 E= -228.495068314580     Delta-E=       -0.000004176040 Rises=F Damp=F
 DIIS: error= 5.92D-06 at cycle   1 NSaved=   1.
 NSaved= 1 IEnMin= 1 EnMin= -228.495068314580     IErMin= 1 ErrMin= 5.92D-06
 ErrMax= 5.92D-06  0.00D+00 EMaxC= 1.00D-01 BMatC= 1.62D-09 BMatP= 1.62D-09
 IDIUse=1 WtCom= 1.00D+00 WtEn= 0.00D+00
 Coeff-Com:  0.100D+01
 Coeff:      0.100D+01
 Gap=     0.257 Goal=   None    Shift=    0.000
 RMSDP=1.21D-06 MaxDP=1.99D-05 DE=-4.18D-06 OVMax= 1.66D-05

 Cycle  10  Pass 1  IDiag  1:
 E= -228.495068316156     Delta-E=       -0.000000001576 Rises=F Damp=F
 DIIS: error= 7.94D-07 at cycle   2 NSaved=   2.
 NSaved= 2 IEnMin= 2 EnMin= -228.495068316156     IErMin= 2 ErrMin= 7.94D-07
 ErrMax= 7.94D-07  0.00D+00 EMaxC= 1.00D-01 BMatC= 6.02D-11 BMatP= 1.62D-09
 IDIUse=1 WtCom= 1.00D+00 WtEn= 0.00D+00
 Coeff-Com:  0.379D-01 0.962D+00
 Coeff:      0.379D-01 0.962D+00
 Gap=     0.257 Goal=   None    Shift=    0.000
 RMSDP=3.25D-07 MaxDP=5.86D-06 DE=-1.58D-09 OVMax= 3.43D-06

 Cycle  11  Pass 1  IDiag  1:
 E= -228.495068316147     Delta-E=        0.000000000010 Rises=F Damp=F
 DIIS: error= 9.09D-07 at cycle   3 NSaved=   3.
 NSaved= 3 IEnMin= 2 EnMin= -228.495068316156     IErMin= 2 ErrMin= 7.94D-07
 ErrMax= 9.09D-07  0.00D+00 EMaxC= 1.00D-01 BMatC= 7.74D-11 BMatP= 6.02D-11
 IDIUse=1 WtCom= 1.00D+00 WtEn= 0.00D+00
 Coeff-Com: -0.131D-01 0.537D+00 0.476D+00
 Coeff:     -0.131D-01 0.537D+00 0.476D+00
 Gap=     0.257 Goal=   None    Shift=    0.000
 RMSDP=1.52D-07 MaxDP=2.63D-06 DE= 9.89D-12 OVMax= 2.66D-06

 Cycle  12  Pass 1  IDiag  1:
 E= -228.495068316200     Delta-E=       -0.000000000053 Rises=F Damp=F
 DIIS: error= 2.48D-07 at cycle   4 NSaved=   4.
 NSaved= 4 IEnMin= 4 EnMin= -228.495068316200     IErMin= 4 ErrMin= 2.48D-07
 ErrMax= 2.48D-07  0.00D+00 EMaxC= 1.00D-01 BMatC= 6.20D-12 BMatP= 6.02D-11
 IDIUse=1 WtCom= 1.00D+00 WtEn= 0.00D+00
 Coeff-Com: -0.956D-02 0.240D+00 0.285D+00 0.485D+00
 Coeff:     -0.956D-02 0.240D+00 0.285D+00 0.485D+00
 Gap=     0.257 Goal=   None    Shift=    0.000
 RMSDP=3.59D-08 MaxDP=5.62D-07 DE=-5.34D-11 OVMax= 8.44D-07

 Cycle  13  Pass 1  IDiag  1:
 E= -228.495068316204     Delta-E=       -0.000000000004 Rises=F Damp=F
 DIIS: error= 7.71D-08 at cycle   5 NSaved=   5.
 NSaved= 5 IEnMin= 5 EnMin= -228.495068316204     IErMin= 5 ErrMin= 7.71D-08
 ErrMax= 7.71D-08  0.00D+00 EMaxC= 1.00D-01 BMatC= 4.42D-13 BMatP= 6.20D-12
 IDIUse=1 WtCom= 1.00D+00 WtEn= 0.00D+00
 Coeff-Com: -0.483D-02 0.103D+00 0.136D+00 0.281D+00 0.484D+00
 Coeff:     -0.483D-02 0.103D+00 0.136D+00 0.281D+00 0.484D+00
 Gap=     0.257 Goal=   None    Shift=    0.000
 RMSDP=1.32D-08 MaxDP=1.96D-07 DE=-4.38D-12 OVMax= 3.47D-07

 Cycle  14  Pass 1  IDiag  1:
 E= -228.495068316204     Delta-E=        0.000000000000 Rises=F Damp=F
 DIIS: error= 3.61D-08 at cycle   6 NSaved=   6.
 NSaved= 6 IEnMin= 5 EnMin= -228.495068316204     IErMin= 6 ErrMin= 3.61D-08
 ErrMax= 3.61D-08  0.00D+00 EMaxC= 1.00D-01 BMatC= 8.28D-14 BMatP= 4.42D-13
 IDIUse=1 WtCom= 1.00D+00 WtEn= 0.00D+00
 Coeff-Com: -0.172D-02 0.307D-01 0.462D-01 0.106D+00 0.326D+00 0.493D+00
 Coeff:     -0.172D-02 0.307D-01 0.462D-01 0.106D+00 0.326D+00 0.493D+00
 Gap=     0.257 Goal=   None    Shift=    0.000
 RMSDP=4.56D-09 MaxDP=6.36D-08 DE= 1.14D-13 OVMax= 1.22D-07

 SCF Done:  E(RB3LYP) =  -228.495068316     A.U. after   14 cycles
            NFock= 14  Conv=0.46D-08     -V/T= 2.0080
 KE= 2.266794994419D+02 PE=-7.684237441512D+02 EE= 2.015021310423D+02
 Leave Link  502 at Wed Mar 27 13:50:13 2024, MaxMem=  1073741824 cpu:              10.8 elap:               5.4
 (Enter /apps/versions/2023.01/rocky8/x86_64/generic/software/Gaussian/16.B.01/g16/l601.exe)
 Copying SCF densities to generalized density rwf, IOpCl= 0 IROHF=0.

 **********************************************************************

            Population analysis using the SCF Density.

 **********************************************************************

 Orbital symmetries:
       Occupied  (A) (A) (A) (A) (A) (A) (A) (A) (A) (A) (A) (A)
                 (A) (A) (A) (A)
       Virtual   (A) (A) (A) (A) (A) (A) (A) (A) (A) (A) (A) (A)
                 (A) (A) (A) (A) (A) (A) (A) (A) (A) (A) (A) (A)
                 (A) (A) (A) (A) (A) (A) (A) (A) (A) (A) (A) (A)
                 (A) (A) (A) (A) (A) (A) (A) (A) (A) (A) (A) (A)
                 (A) (A)
 The electronic state is 1-A.
 Alpha  occ. eigenvalues --  -18.84338 -18.83306 -10.03413  -9.98492  -0.77129
 Alpha  occ. eigenvalues --   -0.67701  -0.51874  -0.27651  -0.23172  -0.22400
 Alpha  occ. eigenvalues --   -0.18280  -0.14166  -0.12267   0.00073   0.00165
 Alpha  occ. eigenvalues --    0.02223
 Alpha virt. eigenvalues --    0.27966   0.29150   0.34269   0.37205   0.44504
 Alpha virt. eigenvalues --    0.55574   0.60717   0.74945   0.79344   0.80525
 Alpha virt. eigenvalues --    0.84787   0.86457   0.90712   1.01016   1.04812
 Alpha virt. eigenvalues --    1.05901   1.11936   1.13782   1.16230   1.22442
 Alpha virt. eigenvalues --    1.30809   1.31902   1.33483   1.38747   1.63438
 Alpha virt. eigenvalues --    1.70813   1.77871   1.82892   2.00629   2.04153
 Alpha virt. eigenvalues --    2.05073   2.10594   2.12647   2.14410   2.22707
 Alpha virt. eigenvalues --    2.24613   2.33227   2.43143   2.44350   2.65804
 Alpha virt. eigenvalues --    2.72765   2.94003   3.02236   3.14121   3.17931
 Alpha virt. eigenvalues --    3.35227   4.07033   4.31050   4.35875   4.66495
          Condensed to atoms (all electrons):
               1          2          3          4          5          6
     1  C    5.640887   0.280920   0.331068   0.327621   0.195689  -0.136891
     2  H    0.280920   0.675528  -0.030305  -0.030453  -0.006790   0.015250
     3  H    0.331068  -0.030305   0.641290  -0.032061  -0.015062   0.001957
     4  H    0.327621  -0.030453  -0.032061   0.644202  -0.014313   0.002237
     5  C    0.195689  -0.006790  -0.015062  -0.014313   4.310884   0.535431
     6  O   -0.136891   0.015250   0.001957   0.002237   0.535431   8.318922
     7  O   -0.143679   0.005536   0.005179   0.005725   0.489959  -0.106049
               7
     1  C   -0.143679
     2  H    0.005536
     3  H    0.005179
     4  H    0.005725
     5  C    0.489959
     6  O   -0.106049
     7  O    8.406349
 Mulliken charges:
               1
     1  C   -0.495614
     2  H    0.090315
     3  H    0.097934
     4  H    0.097042
     5  C    0.504202
     6  O   -0.630858
     7  O   -0.663020
 Sum of Mulliken charges =  -1.00000
 Mulliken charges with hydrogens summed into heavy atoms:
               1
     1  C   -0.210324
     5  C    0.504202
     6  O   -0.630858
     7  O   -0.663020
 Electronic spatial extent (au):  <R**2>=            253.5394
 Charge=             -1.0000 electrons
 Dipole moment (field-independent basis, Debye):
    X=              3.5941    Y=             -0.1912    Z=             -0.0003  Tot=              3.5992
 Quadrupole moment (field-independent basis, Debye-Ang):
   XX=            -30.4201   YY=            -33.3813   ZZ=            -24.1000
   XY=              0.1894   XZ=              0.0152   YZ=              0.0026
 Traceless Quadrupole moment (field-independent basis, Debye-Ang):
   XX=             -1.1196   YY=             -4.0809   ZZ=              5.2005
   XY=              0.1894   XZ=              0.0152   YZ=              0.0026
 Octapole moment (field-independent basis, Debye-Ang**2):
  XXX=             -6.7180  YYY=             -0.7204  ZZZ=              0.0404  XYY=              4.4381
  XXY=              0.3531  XXZ=              0.0149  XZZ=             -1.8097  YZZ=              0.2005
  YYZ=             -0.0092  XYZ=              0.0016
 Hexadecapole moment (field-independent basis, Debye-Ang**3):
 XXXX=           -184.2433 YYYY=           -131.1118 ZZZZ=            -28.2183 XXXY=              0.8212
 XXXZ=              0.0296 YYYX=              0.0436 YYYZ=              0.0005 ZZZX=              0.0505
 ZZZY=              0.0098 XXYY=            -52.6568 XXZZ=            -32.9435 YYZZ=            -24.6110
 XXYZ=              0.0022 YYXZ=             -0.0339 ZZXY=              0.7034
 N-N= 1.117470453507D+02 E-N=-7.684237449659D+02  KE= 2.266794994419D+02
 No NMR shielding tensors so no spin-rotation constants.
 Leave Link  601 at Wed Mar 27 13:50:13 2024, MaxMem=  1073741824 cpu:               0.9 elap:               0.4
 (Enter /apps/versions/2023.01/rocky8/x86_64/generic/software/Gaussian/16.B.01/g16/l701.exe)
 ... and contract with generalized density number  0.
 Compute integral first derivatives.
 Leave Link  701 at Wed Mar 27 13:50:14 2024, MaxMem=  1073741824 cpu:               1.1 elap:               0.5
 (Enter /apps/versions/2023.01/rocky8/x86_64/generic/software/Gaussian/16.B.01/g16/l702.exe)
 L702 exits ... SP integral derivatives will be done elsewhere.
 Leave Link  702 at Wed Mar 27 13:50:14 2024, MaxMem=  1073741824 cpu:               0.2 elap:               0.1
 (Enter /apps/versions/2023.01/rocky8/x86_64/generic/software/Gaussian/16.B.01/g16/l703.exe)
 Integral derivatives from FoFJK, PRISM(SPDF).
 Compute integral first derivatives, UseDBF=F ICtDFT=           0.
 Calling FoFJK, ICntrl=      2127 FMM=F ISym2X=0 I1Cent= 0 IOpClX= 0 NMat=1 NMatS=1 NMatT=0.
 FoFJK:  IHMeth= 1 ICntrl=    2127 DoSepK=F KAlg= 0 I1Cent=           0 FoldK=F
 IRaf=         0 NMat=       1 IRICut=       1 DoRegI=T DoRafI=F ISym2E= 0 IDoP0=0 IntGTp=1.
 FoFCou: FMM=F IPFlag=           0 FMFlag=      100000 FMFlg1=         800
         NFxFlg=           0 DoJE=F BraDBF=F KetDBF=F FulRan=T
         wScrn=  0.000000 ICntrl=      2127 IOpCl=  0 I1Cent=           0 NGrid=           0
         NMat0=    1 NMatS0=      1 NMatT0=    0 NMatD0=    1 NMtDS0=    0 NMtDT0=    0
 Symmetry not used in FoFCou.
 Leave Link  703 at Wed Mar 27 13:50:16 2024, MaxMem=  1073741824 cpu:               4.1 elap:               2.0
 (Enter /apps/versions/2023.01/rocky8/x86_64/generic/software/Gaussian/16.B.01/g16/l716.exe)
 Dipole        = 1.41402771D+00-7.52392454D-02-1.36650868D-04
 ***** Axes restored to original set *****
 -------------------------------------------------------------------
 Center     Atomic                   Forces (Hartrees/Bohr)
 Number     Number              X              Y              Z
 -------------------------------------------------------------------
      1        6           0.000978765    0.005764973    0.004867144
      2        1          -0.002900669    0.002384362    0.003329266
      3        1           0.000659380    0.002863974   -0.000176933
      4        1           0.001795177    0.000973036    0.002045234
      5        6           0.022614951   -0.030707078   -0.037394511
      6        8          -0.014170039    0.003842804    0.010172973
      7        8          -0.008977565    0.014877929    0.017156827
 -------------------------------------------------------------------
 Cartesian Forces:  Max     0.037394511 RMS     0.013571940
 Leave Link  716 at Wed Mar 27 13:50:16 2024, MaxMem=  1073741824 cpu:               0.4 elap:               0.1
 (Enter /apps/versions/2023.01/rocky8/x86_64/generic/software/Gaussian/16.B.01/g16/l103.exe)

 GradGradGradGradGradGradGradGradGradGradGradGradGradGradGradGradGradGrad
 Berny optimization.
 FormGI is forming the generalized inverse of G from B-inverse, IUseBI=4.
 Internal  Forces:  Max     0.023013891 RMS     0.008703392
 Search for a local minimum.
 Step number   1 out of a maximum of  100
 All quantities printed in internal units (Hartrees-Bohrs-Radians)
 RMS Force = .87034D-02 SwitMx=.10000D-02 MixMth= 1
 Mixed Optimization -- RFO/linear search
 Second derivative matrix not updated -- first step.
 ITU=  0
     Eigenvalues ---    0.00427   0.00428   0.07066   0.07351   0.16000
     Eigenvalues ---    0.16000   0.16000   0.25000   0.25000   0.29833
     Eigenvalues ---    0.34218   0.34219   0.34760   0.72268   0.82702
 RFO step:  Lambda=-4.86907745D-03 EMin= 4.27180104D-03
 Linear search not attempted -- first point.
 Iteration  1 RMS(Cart)=  0.02626889 RMS(Int)=  0.00125145
 Iteration  2 RMS(Cart)=  0.00109811 RMS(Int)=  0.00029970
 Iteration  3 RMS(Cart)=  0.00000088 RMS(Int)=  0.00029970
 ITry= 1 IFail=0 DXMaxC= 7.33D-02 DCOld= 1.00D+10 DXMaxT= 3.00D-01 DXLimC= 3.00D+00 Rises=F
 Variable       Old X    -DE/DX   Delta X   Delta X   Delta X     New X
                                 (Linear)    (Quad)   (Total)
    R1        2.06066   0.00450   0.00000   0.01277   0.01277   2.07343
    R2        2.06962   0.00258   0.00000   0.00743   0.00743   2.07706
    R3        2.06963   0.00253   0.00000   0.00728   0.00728   2.07691
    R4        2.88298   0.01563   0.00000   0.05156   0.05156   2.93454
    R5        2.36490   0.01004   0.00000   0.01207   0.01207   2.37697
    R6        2.42375  -0.01995   0.00000  -0.02741  -0.02741   2.39634
    A1        1.91295  -0.00185   0.00000  -0.01034  -0.01041   1.90253
    A2        1.91438  -0.00179   0.00000  -0.00968  -0.00976   1.90463
    A3        1.93660   0.00267   0.00000   0.01727   0.01719   1.95379
    A4        1.86805  -0.00155   0.00000  -0.01160  -0.01161   1.85644
    A5        1.91359   0.00119   0.00000   0.00661   0.00656   1.92015
    A6        1.91701   0.00117   0.00000   0.00663   0.00659   1.92360
    A7        2.07297  -0.01190   0.00000  -0.04647  -0.04725   2.02571
    A8        2.03197  -0.01111   0.00000  -0.04336  -0.04414   1.98783
    A9        2.17819   0.02301   0.00000   0.09052   0.08974   2.26793
    D1        0.02869  -0.00032   0.00000  -0.03270  -0.03269  -0.00400
    D2       -3.12387   0.00030   0.00000   0.03490   0.03488  -3.08899
    D3       -2.08683  -0.00053   0.00000  -0.03536  -0.03537  -2.12220
    D4        1.04379   0.00009   0.00000   0.03224   0.03220   1.07600
    D5        2.14830  -0.00004   0.00000  -0.02907  -0.02903   2.11927
    D6       -1.00426   0.00058   0.00000   0.03853   0.03854  -0.96572
         Item               Value     Threshold  Converged?
 Maximum Force            0.023014     0.000450     NO 
 RMS     Force            0.008703     0.000300     NO 
 Maximum Displacement     0.073332     0.001800     NO 
 RMS     Displacement     0.026205     0.001200     NO 
 Predicted change in Energy=-2.492145D-03
 Lowest energy point so far.  Saving SCF results.
 GradGradGradGradGradGradGradGradGradGradGradGradGradGradGradGradGradGrad

 Leave Link  103 at Wed Mar 27 13:50:17 2024, MaxMem=  1073741824 cpu:               0.3 elap:               0.1
 (Enter /apps/versions/2023.01/rocky8/x86_64/generic/software/Gaussian/16.B.01/g16/l202.exe)
                          Input orientation:                          
 ---------------------------------------------------------------------
 Center     Atomic      Atomic             Coordinates (Angstroms)
 Number     Number       Type             X           Y           Z
 ---------------------------------------------------------------------
      1          6           0       -4.424994    2.328323    2.950017
      2          1           0       -5.341719    2.485850    3.531976
      3          1           0       -4.200958    3.241514    2.380825
      4          1           0       -3.582163    2.178434    3.639287
      5          6           0       -4.550883    1.118054    1.985194
      6          8           0       -5.648791    0.504685    2.008311
      7          8           0       -3.490492    0.865140    1.337389
 ---------------------------------------------------------------------
                    Distance matrix (angstroms):
                    1          2          3          4          5
     1  C    0.000000
     2  H    1.097213   0.000000
     3  H    1.099131   1.788158   0.000000
     4  H    1.099055   1.789430   1.759765   0.000000
     5  C    1.552894   2.211068   2.188161   2.190627   0.000000
     6  O    2.389591   2.518107   3.118528   3.119690   1.257839
     7  O    2.369550   3.296962   2.690850   2.651769   1.268088
                    6          7
     6  O    0.000000
     7  O    2.288738   0.000000
 Stoichiometry    C2H3O2(1-)
 Framework group  C1[X(C2H3O2)]
 Deg. of freedom    15
 Full point group                 C1      NOp   1
 RotChk:  IX=0 Diff= 4.47D-02
 Largest Abelian subgroup         C1      NOp   1
 Largest concise Abelian subgroup C1      NOp   1
                         Standard orientation:                         
 ---------------------------------------------------------------------
 Center     Atomic      Atomic             Coordinates (Angstroms)
 Number     Number       Type             X           Y           Z
 ---------------------------------------------------------------------
      1          6           0        1.338281   -0.062776   -0.002658
      2          1           0        1.707181   -1.095642   -0.033917
      3          1           0        1.747449    0.436718    0.886823
      4          1           0        1.727682    0.485174   -0.872164
      5          6           0       -0.213230   -0.001118    0.019592
      6          8           0       -0.810733   -1.107705   -0.005185
      7          8           0       -0.680844    1.177344   -0.005109
 ---------------------------------------------------------------------
 Rotational constants (GHZ):          11.2222963          10.0827613           5.4917745
 Leave Link  202 at Wed Mar 27 13:50:17 2024, MaxMem=  1073741824 cpu:               0.0 elap:               0.0
 (Enter /apps/versions/2023.01/rocky8/x86_64/generic/software/Gaussian/16.B.01/g16/l301.exe)
 Standard basis: 6-31G(d) (6D, 7F)
 Ernie: Thresh=  0.10000D-02 Tol=  0.10000D-05 Strict=F.
 There are    66 symmetry adapted cartesian basis functions of A   symmetry.
 There are    66 symmetry adapted basis functions of A   symmetry.
    66 basis functions,   124 primitive gaussians,    66 cartesian basis functions
    16 alpha electrons       16 beta electrons
       nuclear repulsion energy       111.3881357811 Hartrees.
 IExCor=  402 DFT=T Ex+Corr=B3LYP ExCW=0 ScaHFX=  0.200000
 ScaDFX=  0.800000  0.720000  1.000000  0.810000 ScalE2=  1.000000  1.000000
 IRadAn=      5 IRanWt=     -1 IRanGd=            0 ICorTp=0 IEmpDi=  4
 NAtoms=    7 NActive=    7 NUniq=    7 SFac= 1.00D+00 NAtFMM=   60 NAOKFM=F Big=F
 Integral buffers will be    131072 words long.
 Raffenetti 2 integral format.
 Two-electron integral symmetry is turned on.
 Leave Link  301 at Wed Mar 27 13:50:17 2024, MaxMem=  1073741824 cpu:               0.5 elap:               0.2
 (Enter /apps/versions/2023.01/rocky8/x86_64/generic/software/Gaussian/16.B.01/g16/l302.exe)
 NPDir=0 NMtPBC=     1 NCelOv=     1 NCel=       1 NClECP=     1 NCelD=      1
         NCelK=      1 NCelE2=     1 NClLst=     1 CellRange=     0.0.
 One-electron integrals computed using PRISM.
 One-electron integral symmetry used in STVInt
 NBasis=    66 RedAO= T EigKep=  4.33D-03  NBF=    66
 NBsUse=    66 1.00D-06 EigRej= -1.00D+00 NBFU=    66
 Precomputing XC quadrature grid using
 IXCGrd= 4 IRadAn=           5 IRanWt=          -1 IRanGd=           0 AccXCQ= 0.00D+00.
 Generated NRdTot=       0 NPtTot=           0 NUsed=           0 NTot=          32
 NSgBfM=    66    66    66    66    66 MxSgAt=     7 MxSgA2=     7.
 Leave Link  302 at Wed Mar 27 13:50:17 2024, MaxMem=  1073741824 cpu:               1.2 elap:               0.6
 (Enter /apps/versions/2023.01/rocky8/x86_64/generic/software/Gaussian/16.B.01/g16/l303.exe)
 DipDrv:  MaxL=1.
 Leave Link  303 at Wed Mar 27 13:50:18 2024, MaxMem=  1073741824 cpu:               0.3 elap:               0.2
 (Enter /apps/versions/2023.01/rocky8/x86_64/generic/software/Gaussian/16.B.01/g16/l401.exe)
 Initial guess from the checkpoint file:  "098457434.chk"
 B after Tr=     0.000000   -0.000000    0.000000
         Rot=    0.999866   -0.000159   -0.000766    0.016321 Ang=  -1.87 deg.
 Guess basis will be translated and rotated to current coordinates.
 JPrj=2 DoOrth=T DoCkMO=T.
 Generating alternative initial guess.
 ExpMin= 1.61D-01 ExpMax= 5.48D+03 ExpMxC= 8.25D+02 IAcc=3 IRadAn=         5 AccDes= 0.00D+00
 Harris functional with IExCor=  402 and IRadAn=       5 diagonalized for initial guess.
 HarFok:  IExCor=  402 AccDes= 0.00D+00 IRadAn=         5 IDoV= 1 UseB2=F ITyADJ=14
 ICtDFT=  3500011 ScaDFX=  1.000000  1.000000  1.000000  1.000000
 FoFCou: FMM=F IPFlag=           0 FMFlag=      100000 FMFlg1=           0
         NFxFlg=           0 DoJE=T BraDBF=F KetDBF=T FulRan=T
         wScrn=  0.000000 ICntrl=       500 IOpCl=  0 I1Cent=   200000004 NGrid=           0
         NMat0=    1 NMatS0=      1 NMatT0=    0 NMatD0=    1 NMtDS0=    0 NMtDT0=    0
 Petite list used in FoFCou.
 Harris En= -228.736547830313    
 Leave Link  401 at Wed Mar 27 13:50:19 2024, MaxMem=  1073741824 cpu:               2.7 elap:               1.3
 (Enter /apps/versions/2023.01/rocky8/x86_64/generic/software/Gaussian/16.B.01/g16/l502.exe)
 Keep R1 ints in memory in canonical form, NReq=9560181.
 FoFCou: FMM=F IPFlag=           0 FMFlag=           0 FMFlg1=           0
         NFxFlg=           0 DoJE=F BraDBF=F KetDBF=F FulRan=T
         wScrn=  0.000000 ICntrl=       600 IOpCl=  0 I1Cent=           0 NGrid=           0
         NMat0=    1 NMatS0=   2211 NMatT0=    0 NMatD0=    1 NMtDS0=    0 NMtDT0=    0
 Symmetry not used in FoFCou.
 Two-electron integral symmetry not used.
 Closed shell SCF:
 Using DIIS extrapolation, IDIIS=  1040.
 NGot=  1073741824 LenX=  1071286351 LenY=  1071281554
 Requested convergence on RMS density matrix=1.00D-08 within 128 cycles.
 Requested convergence on MAX density matrix=1.00D-06.
 Requested convergence on             energy=1.00D-06.
 No special actions if energy rises.
 Integral accuracy reduced to 1.0D-05 until final iterations.

 Cycle   1  Pass 0  IDiag  1:
 E= -228.494379139166    
 DIIS: error= 3.66D-03 at cycle   1 NSaved=   1.
 NSaved= 1 IEnMin= 1 EnMin= -228.494379139166     IErMin= 1 ErrMin= 3.66D-03
 ErrMax= 3.66D-03  0.00D+00 EMaxC= 1.00D-01 BMatC= 1.82D-03 BMatP= 1.82D-03
 IDIUse=3 WtCom= 9.63D-01 WtEn= 3.66D-02
 Coeff-Com:  0.100D+01
 Coeff-En:   0.100D+01
 Coeff:      0.100D+01
 Gap=     1.734 Goal=   None    Shift=    0.000
 GapD=    1.734 DampG=2.000 DampE=1.000 DampFc=2.0000 IDamp=-1.
 RMSDP=1.57D-03 MaxDP=1.20D-02              OVMax= 2.14D-02

 Cycle   2  Pass 0  IDiag  1:
 E= -228.497146299994     Delta-E=       -0.002767160828 Rises=F Damp=F
 DIIS: error= 1.46D-03 at cycle   2 NSaved=   2.
 NSaved= 2 IEnMin= 2 EnMin= -228.497146299994     IErMin= 2 ErrMin= 1.46D-03
 ErrMax= 1.46D-03  0.00D+00 EMaxC= 1.00D-01 BMatC= 3.05D-04 BMatP= 1.82D-03
 IDIUse=3 WtCom= 9.85D-01 WtEn= 1.46D-02
 Coeff-Com:  0.160D+00 0.840D+00
 Coeff-En:   0.000D+00 0.100D+01
 Coeff:      0.158D+00 0.842D+00
 Gap=     0.268 Goal=   None    Shift=    0.000
 RMSDP=4.77D-04 MaxDP=8.48D-03 DE=-2.77D-03 OVMax= 1.12D-02

 Cycle   3  Pass 0  IDiag  1:
 E= -228.496933205539     Delta-E=        0.000213094456 Rises=F Damp=F
 DIIS: error= 2.26D-03 at cycle   3 NSaved=   3.
 NSaved= 3 IEnMin= 2 EnMin= -228.497146299994     IErMin= 2 ErrMin= 1.46D-03
 ErrMax= 2.26D-03  0.00D+00 EMaxC= 1.00D-01 BMatC= 5.88D-04 BMatP= 3.05D-04
 IDIUse=3 WtCom= 1.74D-01 WtEn= 8.26D-01
 Coeff-Com: -0.356D-01 0.599D+00 0.437D+00
 Coeff-En:   0.000D+00 0.626D+00 0.374D+00
 Coeff:     -0.619D-02 0.622D+00 0.385D+00
 Gap=     0.271 Goal=   None    Shift=    0.000
 RMSDP=3.14D-04 MaxDP=5.33D-03 DE= 2.13D-04 OVMax= 8.07D-03

 Cycle   4  Pass 0  IDiag  1:
 E= -228.497380567731     Delta-E=       -0.000447362193 Rises=F Damp=F
 DIIS: error= 4.32D-04 at cycle   4 NSaved=   4.
 NSaved= 4 IEnMin= 4 EnMin= -228.497380567731     IErMin= 4 ErrMin= 4.32D-04
 ErrMax= 4.32D-04  0.00D+00 EMaxC= 1.00D-01 BMatC= 1.32D-05 BMatP= 3.05D-04
 IDIUse=3 WtCom= 9.96D-01 WtEn= 4.32D-03
 Coeff-Com: -0.240D-01 0.313D+00 0.211D+00 0.500D+00
 Coeff-En:   0.000D+00 0.000D+00 0.000D+00 0.100D+01
 Coeff:     -0.239D-01 0.312D+00 0.210D+00 0.502D+00
 Gap=     0.271 Goal=   None    Shift=    0.000
 RMSDP=6.76D-05 MaxDP=9.37D-04 DE=-4.47D-04 OVMax= 1.22D-03

 Cycle   5  Pass 0  IDiag  1:
 E= -228.497390605137     Delta-E=       -0.000010037406 Rises=F Damp=F
 DIIS: error= 1.41D-04 at cycle   5 NSaved=   5.
 NSaved= 5 IEnMin= 5 EnMin= -228.497390605137     IErMin= 5 ErrMin= 1.41D-04
 ErrMax= 1.41D-04  0.00D+00 EMaxC= 1.00D-01 BMatC= 2.27D-06 BMatP= 1.32D-05
 IDIUse=3 WtCom= 9.99D-01 WtEn= 1.41D-03
 Coeff-Com: -0.864D-02 0.895D-01 0.605D-01 0.302D+00 0.556D+00
 Coeff-En:   0.000D+00 0.000D+00 0.000D+00 0.114D+00 0.886D+00
 Coeff:     -0.862D-02 0.894D-01 0.605D-01 0.302D+00 0.557D+00
 Gap=     0.271 Goal=   None    Shift=    0.000
 RMSDP=2.21D-05 MaxDP=3.73D-04 DE=-1.00D-05 OVMax= 4.35D-04

 Cycle   6  Pass 0  IDiag  1:
 E= -228.497392224821     Delta-E=       -0.000001619684 Rises=F Damp=F
 DIIS: error= 4.30D-05 at cycle   6 NSaved=   6.
 NSaved= 6 IEnMin= 6 EnMin= -228.497392224821     IErMin= 6 ErrMin= 4.30D-05
 ErrMax= 4.30D-05  0.00D+00 EMaxC= 1.00D-01 BMatC= 1.41D-07 BMatP= 2.27D-06
 IDIUse=1 WtCom= 1.00D+00 WtEn= 0.00D+00
 Coeff-Com: -0.254D-02 0.220D-01 0.155D-01 0.120D+00 0.289D+00 0.557D+00
 Coeff:     -0.254D-02 0.220D-01 0.155D-01 0.120D+00 0.289D+00 0.557D+00
 Gap=     0.271 Goal=   None    Shift=    0.000
 RMSDP=5.51D-06 MaxDP=7.98D-05 DE=-1.62D-06 OVMax= 8.32D-05

 Initial convergence to 1.0D-05 achieved.  Increase integral accuracy.
 Cycle   7  Pass 1  IDiag  1:
 E= -228.497391537454     Delta-E=        0.000000687366 Rises=F Damp=F
 DIIS: error= 6.75D-06 at cycle   1 NSaved=   1.
 NSaved= 1 IEnMin= 1 EnMin= -228.497391537454     IErMin= 1 ErrMin= 6.75D-06
 ErrMax= 6.75D-06  0.00D+00 EMaxC= 1.00D-01 BMatC= 5.45D-09 BMatP= 5.45D-09
 IDIUse=1 WtCom= 1.00D+00 WtEn= 0.00D+00
 Coeff-Com:  0.100D+01
 Coeff:      0.100D+01
 Gap=     0.271 Goal=   None    Shift=    0.000
 RMSDP=5.51D-06 MaxDP=7.98D-05 DE= 6.87D-07 OVMax= 4.16D-05

 Cycle   8  Pass 1  IDiag  1:
 E= -228.497391536356     Delta-E=        0.000000001099 Rises=F Damp=F
 DIIS: error= 8.50D-06 at cycle   2 NSaved=   2.
 NSaved= 2 IEnMin= 1 EnMin= -228.497391537454     IErMin= 1 ErrMin= 6.75D-06
 ErrMax= 8.50D-06  0.00D+00 EMaxC= 1.00D-01 BMatC= 8.16D-09 BMatP= 5.45D-09
 IDIUse=1 WtCom= 1.00D+00 WtEn= 0.00D+00
 Coeff-Com:  0.556D+00 0.444D+00
 Coeff:      0.556D+00 0.444D+00
 Gap=     0.271 Goal=   None    Shift=    0.000
 RMSDP=1.52D-06 MaxDP=2.25D-05 DE= 1.10D-09 OVMax= 3.90D-05

 Cycle   9  Pass 1  IDiag  1:
 E= -228.497391542479     Delta-E=       -0.000000006124 Rises=F Damp=F
 DIIS: error= 3.78D-06 at cycle   3 NSaved=   3.
 NSaved= 3 IEnMin= 3 EnMin= -228.497391542479     IErMin= 3 ErrMin= 3.78D-06
 ErrMax= 3.78D-06  0.00D+00 EMaxC= 1.00D-01 BMatC= 1.04D-09 BMatP= 5.45D-09
 IDIUse=1 WtCom= 1.00D+00 WtEn= 0.00D+00
 Coeff-Com:  0.225D+00 0.279D+00 0.495D+00
 Coeff:      0.225D+00 0.279D+00 0.495D+00
 Gap=     0.271 Goal=   None    Shift=    0.000
 RMSDP=5.65D-07 MaxDP=7.77D-06 DE=-6.12D-09 OVMax= 1.64D-05

 Cycle  10  Pass 1  IDiag  1:
 E= -228.497391543168     Delta-E=       -0.000000000689 Rises=F Damp=F
 DIIS: error= 1.22D-06 at cycle   4 NSaved=   4.
 NSaved= 4 IEnMin= 4 EnMin= -228.497391543168     IErMin= 4 ErrMin= 1.22D-06
 ErrMax= 1.22D-06  0.00D+00 EMaxC= 1.00D-01 BMatC= 1.42D-10 BMatP= 1.04D-09
 IDIUse=1 WtCom= 1.00D+00 WtEn= 0.00D+00
 Coeff-Com:  0.131D-01 0.750D-01 0.305D+00 0.607D+00
 Coeff:      0.131D-01 0.750D-01 0.305D+00 0.607D+00
 Gap=     0.271 Goal=   None    Shift=    0.000
 RMSDP=1.87D-07 MaxDP=2.42D-06 DE=-6.89D-10 OVMax= 4.31D-06

 Cycle  11  Pass 1  IDiag  1:
 E= -228.497391543289     Delta-E=       -0.000000000121 Rises=F Damp=F
 DIIS: error= 2.17D-07 at cycle   5 NSaved=   5.
 NSaved= 5 IEnMin= 5 EnMin= -228.497391543289     IErMin= 5 ErrMin= 2.17D-07
 ErrMax= 2.17D-07  0.00D+00 EMaxC= 1.00D-01 BMatC= 4.14D-12 BMatP= 1.42D-10
 IDIUse=1 WtCom= 1.00D+00 WtEn= 0.00D+00
 Coeff-Com: -0.928D-02 0.116D-01 0.809D-01 0.237D+00 0.680D+00
 Coeff:     -0.928D-02 0.116D-01 0.809D-01 0.237D+00 0.680D+00
 Gap=     0.271 Goal=   None    Shift=    0.000
 RMSDP=4.31D-08 MaxDP=5.46D-07 DE=-1.21D-10 OVMax= 8.51D-07

 Cycle  12  Pass 1  IDiag  1:
 E= -228.497391543293     Delta-E=       -0.000000000003 Rises=F Damp=F
 DIIS: error= 1.20D-07 at cycle   6 NSaved=   6.
 NSaved= 6 IEnMin= 6 EnMin= -228.497391543293     IErMin= 6 ErrMin= 1.20D-07
 ErrMax= 1.20D-07  0.00D+00 EMaxC= 1.00D-01 BMatC= 1.54D-12 BMatP= 4.14D-12
 IDIUse=1 WtCom= 1.00D+00 WtEn= 0.00D+00
 Coeff-Com: -0.767D-02-0.711D-03 0.183D-01 0.850D-01 0.428D+00 0.477D+00
 Coeff:     -0.767D-02-0.711D-03 0.183D-01 0.850D-01 0.428D+00 0.477D+00
 Gap=     0.271 Goal=   None    Shift=    0.000
 RMSDP=1.68D-08 MaxDP=1.97D-07 DE=-3.41D-12 OVMax= 3.42D-07

 Cycle  13  Pass 1  IDiag  1:
 E= -228.497391543293     Delta-E=       -0.000000000001 Rises=F Damp=F
 DIIS: error= 1.33D-08 at cycle   7 NSaved=   7.
 NSaved= 7 IEnMin= 7 EnMin= -228.497391543293     IErMin= 7 ErrMin= 1.33D-08
 ErrMax= 1.33D-08  0.00D+00 EMaxC= 1.00D-01 BMatC= 1.31D-14 BMatP= 1.54D-12
 IDIUse=1 WtCom= 1.00D+00 WtEn= 0.00D+00
 Coeff-Com:  0.321D-03-0.127D-02-0.641D-02-0.171D-01-0.362D-01 0.449D-01
 Coeff-Com:  0.102D+01
 Coeff:      0.321D-03-0.127D-02-0.641D-02-0.171D-01-0.362D-01 0.449D-01
 Coeff:      0.102D+01
 Gap=     0.271 Goal=   None    Shift=    0.000
 RMSDP=4.69D-09 MaxDP=4.81D-08 DE=-6.82D-13 OVMax= 1.79D-07

 SCF Done:  E(RB3LYP) =  -228.497391543     A.U. after   13 cycles
            NFock= 13  Conv=0.47D-08     -V/T= 2.0082
 KE= 2.266366775808D+02 PE=-7.676053592876D+02 EE= 2.010831543824D+02
 Leave Link  502 at Wed Mar 27 13:50:24 2024, MaxMem=  1073741824 cpu:              10.2 elap:               5.1
 (Enter /apps/versions/2023.01/rocky8/x86_64/generic/software/Gaussian/16.B.01/g16/l701.exe)
 ... and contract with generalized density number  0.
 Compute integral first derivatives.
 Leave Link  701 at Wed Mar 27 13:50:25 2024, MaxMem=  1073741824 cpu:               1.0 elap:               0.5
 (Enter /apps/versions/2023.01/rocky8/x86_64/generic/software/Gaussian/16.B.01/g16/l702.exe)
 L702 exits ... SP integral derivatives will be done elsewhere.
 Leave Link  702 at Wed Mar 27 13:50:25 2024, MaxMem=  1073741824 cpu:               0.4 elap:               0.2
 (Enter /apps/versions/2023.01/rocky8/x86_64/generic/software/Gaussian/16.B.01/g16/l703.exe)
 Integral derivatives from FoFJK, PRISM(SPDF).
 Compute integral first derivatives, UseDBF=F ICtDFT=           0.
 Calling FoFJK, ICntrl=      2127 FMM=F ISym2X=0 I1Cent= 0 IOpClX= 0 NMat=1 NMatS=1 NMatT=0.
 FoFJK:  IHMeth= 1 ICntrl=    2127 DoSepK=F KAlg= 0 I1Cent=           0 FoldK=F
 IRaf=         0 NMat=       1 IRICut=       1 DoRegI=T DoRafI=F ISym2E= 0 IDoP0=0 IntGTp=1.
 FoFCou: FMM=F IPFlag=           0 FMFlag=      100000 FMFlg1=         800
         NFxFlg=           0 DoJE=F BraDBF=F KetDBF=F FulRan=T
         wScrn=  0.000000 ICntrl=      2127 IOpCl=  0 I1Cent=           0 NGrid=           0
         NMat0=    1 NMatS0=      1 NMatT0=    0 NMatD0=    1 NMtDS0=    0 NMtDT0=    0
 Symmetry not used in FoFCou.
 Leave Link  703 at Wed Mar 27 13:50:27 2024, MaxMem=  1073741824 cpu:               3.8 elap:               1.8
 (Enter /apps/versions/2023.01/rocky8/x86_64/generic/software/Gaussian/16.B.01/g16/l716.exe)
 Dipole        = 1.27250225D+00-6.83687715D-02 1.53861490D-02
 ***** Axes restored to original set *****
 -------------------------------------------------------------------
 Center     Atomic                   Forces (Hartrees/Bohr)
 Number     Number              X              Y              Z
 -------------------------------------------------------------------
      1        6          -0.001493949    0.006649963    0.002646884
      2        1          -0.000137640    0.000834948    0.000428703
      3        1           0.000260642    0.001192327    0.000228453
      4        1           0.000151208   -0.000355110    0.000025666
      5        6           0.011203373   -0.012418913   -0.001397481
      6        8           0.000731632    0.001673908   -0.003526136
      7        8          -0.010715266    0.002422877    0.001593911
 -------------------------------------------------------------------
 Cartesian Forces:  Max     0.012418913 RMS     0.004764690
 Leave Link  716 at Wed Mar 27 13:50:27 2024, MaxMem=  1073741824 cpu:               0.3 elap:               0.1
 (Enter /apps/versions/2023.01/rocky8/x86_64/generic/software/Gaussian/16.B.01/g16/l103.exe)

 GradGradGradGradGradGradGradGradGradGradGradGradGradGradGradGradGradGrad
 Berny optimization.
 Using GEDIIS/GDIIS optimizer.
 FormGI is forming the generalized inverse of G from B-inverse, IUseBI=4.
 Internal  Forces:  Max     0.010258004 RMS     0.003375181
 Search for a local minimum.
 Step number   2 out of a maximum of  100
 All quantities printed in internal units (Hartrees-Bohrs-Radians)
 RMS Force = .33752D-02 SwitMx=.10000D-02 MixMth= 1
 Mixed Optimization -- RFO/linear search
 Update second derivatives using D2CorX and points    1    2
 DE= -2.32D-03 DEPred=-2.49D-03 R= 9.32D-01
 TightC=F SS=  1.41D+00  RLast= 1.54D-01 DXNew= 5.0454D-01 4.6167D-01
 Trust test= 9.32D-01 RLast= 1.54D-01 DXMaxT set to 4.62D-01
 ITU=  1  0
 Use linear search instead of GDIIS.
     Eigenvalues ---    0.00427   0.00538   0.06905   0.07268   0.15484
     Eigenvalues ---    0.16000   0.16046   0.22215   0.25126   0.32322
     Eigenvalues ---    0.34162   0.34264   0.34811   0.66956   0.83600
 RFO step:  Lambda=-4.70460332D-03 EMin= 4.27212093D-03
 Quartic linear search produced a step of -0.03899.
 Iteration  1 RMS(Cart)=  0.07609675 RMS(Int)=  0.03876639
 Iteration  2 RMS(Cart)=  0.02982444 RMS(Int)=  0.01938064
 Iteration  3 RMS(Cart)=  0.00141763 RMS(Int)=  0.01930143
 Iteration  4 RMS(Cart)=  0.00008402 RMS(Int)=  0.01930129
 Iteration  5 RMS(Cart)=  0.00000492 RMS(Int)=  0.01930129
 Iteration  6 RMS(Cart)=  0.00000029 RMS(Int)=  0.01930129
 ITry= 1 IFail=0 DXMaxC= 2.52D-01 DCOld= 1.00D+10 DXMaxT= 4.62D-01 DXLimC= 3.00D+00 Rises=F
 Variable       Old X    -DE/DX   Delta X   Delta X   Delta X     New X
                                 (Linear)    (Quad)   (Total)
    R1        2.07343   0.00046  -0.00050   0.01469   0.01419   2.08763
    R2        2.07706   0.00093  -0.00029   0.01044   0.01015   2.08721
    R3        2.07691   0.00018  -0.00028   0.00815   0.00787   2.08478
    R4        2.93454   0.00846  -0.00201   0.08166   0.07965   3.01419
    R5        2.37697  -0.00152  -0.00047   0.01093   0.01046   2.38743
    R6        2.39634  -0.01026   0.00107  -0.04296  -0.04189   2.35445
    A1        1.90253  -0.00089   0.00041  -0.01471  -0.01450   1.88803
    A2        1.90463  -0.00019   0.00038  -0.01205  -0.01171   1.89292
    A3        1.95379   0.00107  -0.00067   0.02447   0.02367   1.97746
    A4        1.85644  -0.00025   0.00045  -0.01430  -0.01384   1.84260
    A5        1.92015   0.00110  -0.00026   0.01382   0.01345   1.93360
    A6        1.92360  -0.00092  -0.00026   0.00041   0.00014   1.92374
    A7        2.02571   0.00087   0.00184  -0.03541  -0.07986   1.94585
    A8        1.98783   0.00254   0.00172  -0.02565  -0.07042   1.91740
    A9        2.26793  -0.00309  -0.00350   0.09197   0.03356   2.30149
    D1       -0.00400   0.00256   0.00127   0.24460   0.23678   0.23278
    D2       -3.08899  -0.00248  -0.00136  -0.26761  -0.25974   2.93446
    D3       -2.12220   0.00221   0.00138   0.23724   0.22938  -1.89282
    D4        1.07600  -0.00283  -0.00126  -0.27496  -0.26714   0.80886
    D5        2.11927   0.00240   0.00113   0.24618   0.23817   2.35744
    D6       -0.96572  -0.00263  -0.00150  -0.26602  -0.25835  -1.22407
         Item               Value     Threshold  Converged?
 Maximum Force            0.010258     0.000450     NO 
 RMS     Force            0.003375     0.000300     NO 
 Maximum Displacement     0.252069     0.001800     NO 
 RMS     Displacement     0.097407     0.001200     NO 
 Predicted change in Energy=-2.729680D-03
 Lowest energy point so far.  Saving SCF results.
 GradGradGradGradGradGradGradGradGradGradGradGradGradGradGradGradGradGrad

 Leave Link  103 at Wed Mar 27 13:50:27 2024, MaxMem=  1073741824 cpu:               0.1 elap:               0.0
 (Enter /apps/versions/2023.01/rocky8/x86_64/generic/software/Gaussian/16.B.01/g16/l202.exe)
                          Input orientation:                          
 ---------------------------------------------------------------------
 Center     Atomic      Atomic             Coordinates (Angstroms)
 Number     Number       Type             X           Y           Z
 ---------------------------------------------------------------------
      1          6           0       -4.417457    2.303219    2.964075
      2          1           0       -5.345813    2.501740    3.529018
      3          1           0       -4.197844    3.187902    2.340349
      4          1           0       -3.581468    2.230881    3.680299
      5          6           0       -4.492898    0.984665    2.069713
      6          8           0       -5.679744    0.564924    1.963263
      7          8           0       -3.524775    0.948668    1.286283
 ---------------------------------------------------------------------
                    Distance matrix (angstroms):
                    1          2          3          4          5
     1  C    0.000000
     2  H    1.104724   0.000000
     3  H    1.104504   1.789297   0.000000
     4  H    1.103217   1.791414   1.758203   0.000000
     5  C    1.595042   2.271244   2.239320   2.231086   0.000000
     6  O    2.369950   2.512838   3.036155   3.182198   1.263376
     7  O    2.333811   3.279950   2.564809   2.716357   1.245921
                    6          7
     6  O    0.000000
     7  O    2.291169   0.000000
 Stoichiometry    C2H3O2(1-)
 Framework group  C1[X(C2H3O2)]
 Deg. of freedom    15
 Full point group                 C1      NOp   1
 RotChk:  IX=0 Diff= 7.57D-02
 Largest Abelian subgroup         C1      NOp   1
 Largest concise Abelian subgroup C1      NOp   1
                         Standard orientation:                         
 ---------------------------------------------------------------------
 Center     Atomic      Atomic             Coordinates (Angstroms)
 Number     Number       Type             X           Y           Z
 ---------------------------------------------------------------------
      1          6           0        1.323891   -0.105496    0.014796
      2          1           0        1.678781   -1.151018    0.051583
      3          1           0        1.656625    0.403928    0.936589
      4          1           0        1.841443    0.410126   -0.811862
      5          6           0       -0.256518    0.018491   -0.161535
      6          8           0       -0.833222   -1.086661    0.043816
      7          8           0       -0.614414    1.194035    0.044200
 ---------------------------------------------------------------------
 Rotational constants (GHZ):          11.1426395          10.2015332           5.5511991
 Leave Link  202 at Wed Mar 27 13:50:27 2024, MaxMem=  1073741824 cpu:               0.0 elap:               0.0
 (Enter /apps/versions/2023.01/rocky8/x86_64/generic/software/Gaussian/16.B.01/g16/l301.exe)
 Standard basis: 6-31G(d) (6D, 7F)
 Ernie: Thresh=  0.10000D-02 Tol=  0.10000D-05 Strict=F.
 There are    66 symmetry adapted cartesian basis functions of A   symmetry.
 There are    66 symmetry adapted basis functions of A   symmetry.
    66 basis functions,   124 primitive gaussians,    66 cartesian basis functions
    16 alpha electrons       16 beta electrons
       nuclear repulsion energy       111.4857459373 Hartrees.
 IExCor=  402 DFT=T Ex+Corr=B3LYP ExCW=0 ScaHFX=  0.200000
 ScaDFX=  0.800000  0.720000  1.000000  0.810000 ScalE2=  1.000000  1.000000
 IRadAn=      5 IRanWt=     -1 IRanGd=            0 ICorTp=0 IEmpDi=  4
 NAtoms=    7 NActive=    7 NUniq=    7 SFac= 1.00D+00 NAtFMM=   60 NAOKFM=F Big=F
 Integral buffers will be    131072 words long.
 Raffenetti 2 integral format.
 Two-electron integral symmetry is turned on.
 Leave Link  301 at Wed Mar 27 13:50:27 2024, MaxMem=  1073741824 cpu:               0.4 elap:               0.2
 (Enter /apps/versions/2023.01/rocky8/x86_64/generic/software/Gaussian/16.B.01/g16/l302.exe)
 NPDir=0 NMtPBC=     1 NCelOv=     1 NCel=       1 NClECP=     1 NCelD=      1
         NCelK=      1 NCelE2=     1 NClLst=     1 CellRange=     0.0.
 One-electron integrals computed using PRISM.
 One-electron integral symmetry used in STVInt
 NBasis=    66 RedAO= T EigKep=  5.13D-03  NBF=    66
 NBsUse=    66 1.00D-06 EigRej= -1.00D+00 NBFU=    66
 Precomputing XC quadrature grid using
 IXCGrd= 4 IRadAn=           5 IRanWt=          -1 IRanGd=           0 AccXCQ= 0.00D+00.
 Generated NRdTot=       0 NPtTot=           0 NUsed=           0 NTot=          32
 NSgBfM=    66    66    66    66    66 MxSgAt=     7 MxSgA2=     7.
 Leave Link  302 at Wed Mar 27 13:50:28 2024, MaxMem=  1073741824 cpu:               1.2 elap:               0.5
 (Enter /apps/versions/2023.01/rocky8/x86_64/generic/software/Gaussian/16.B.01/g16/l303.exe)
 DipDrv:  MaxL=1.
 Leave Link  303 at Wed Mar 27 13:50:28 2024, MaxMem=  1073741824 cpu:               0.3 elap:               0.1
 (Enter /apps/versions/2023.01/rocky8/x86_64/generic/software/Gaussian/16.B.01/g16/l401.exe)
 Initial guess from the checkpoint file:  "098457434.chk"
 B after Tr=     0.000000   -0.000000    0.000000
         Rot=    0.999840    0.001172    0.005109    0.017123 Ang=   2.05 deg.
 Guess basis will be translated and rotated to current coordinates.
 JPrj=2 DoOrth=T DoCkMO=T.
 Generating alternative initial guess.
 ExpMin= 1.61D-01 ExpMax= 5.48D+03 ExpMxC= 8.25D+02 IAcc=3 IRadAn=         5 AccDes= 0.00D+00
 Harris functional with IExCor=  402 and IRadAn=       5 diagonalized for initial guess.
 HarFok:  IExCor=  402 AccDes= 0.00D+00 IRadAn=         5 IDoV= 1 UseB2=F ITyADJ=14
 ICtDFT=  3500011 ScaDFX=  1.000000  1.000000  1.000000  1.000000
 FoFCou: FMM=F IPFlag=           0 FMFlag=      100000 FMFlg1=           0
         NFxFlg=           0 DoJE=T BraDBF=F KetDBF=T FulRan=T
         wScrn=  0.000000 ICntrl=       500 IOpCl=  0 I1Cent=   200000004 NGrid=           0
         NMat0=    1 NMatS0=      1 NMatT0=    0 NMatD0=    1 NMtDS0=    0 NMtDT0=    0
 Petite list used in FoFCou.
 Harris En= -228.718883861679    
 Leave Link  401 at Wed Mar 27 13:50:30 2024, MaxMem=  1073741824 cpu:               2.7 elap:               1.3
 (Enter /apps/versions/2023.01/rocky8/x86_64/generic/software/Gaussian/16.B.01/g16/l502.exe)
 Keep R1 ints in memory in canonical form, NReq=9560181.
 FoFCou: FMM=F IPFlag=           0 FMFlag=           0 FMFlg1=           0
         NFxFlg=           0 DoJE=F BraDBF=F KetDBF=F FulRan=T
         wScrn=  0.000000 ICntrl=       600 IOpCl=  0 I1Cent=           0 NGrid=           0
         NMat0=    1 NMatS0=   2211 NMatT0=    0 NMatD0=    1 NMtDS0=    0 NMtDT0=    0
 Symmetry not used in FoFCou.
 Two-electron integral symmetry not used.
 Closed shell SCF:
 Using DIIS extrapolation, IDIIS=  1040.
 NGot=  1073741824 LenX=  1071286351 LenY=  1071281554
 Requested convergence on RMS density matrix=1.00D-08 within 128 cycles.
 Requested convergence on MAX density matrix=1.00D-06.
 Requested convergence on             energy=1.00D-06.
 No special actions if energy rises.
 Integral accuracy reduced to 1.0D-05 until final iterations.

 Cycle   1  Pass 0  IDiag  1:
 E= -228.433945272224    
 DIIS: error= 1.20D-02 at cycle   1 NSaved=   1.
 NSaved= 1 IEnMin= 1 EnMin= -228.433945272224     IErMin= 1 ErrMin= 1.20D-02
 ErrMax= 1.20D-02  0.00D+00 EMaxC= 1.00D-01 BMatC= 2.51D-02 BMatP= 2.51D-02
 IDIUse=3 WtCom= 8.80D-01 WtEn= 1.20D-01
 Coeff-Com:  0.100D+01
 Coeff-En:   0.100D+01
 Coeff:      0.100D+01
 Recover alternate guess density for next cycle.
 RMSDP=9.94D-03 MaxDP=1.00D-01              OVMax= 0.00D+00

 Cycle   2  Pass 0  IDiag  1:
 E= -228.265118891340     Delta-E=        0.168826380884 Rises=F Damp=F
 Switch densities from cycles 1 and 2 for lowest energy.
 DIIS: error= 5.27D-02 at cycle   2 NSaved=   2.
 NSaved= 2 IEnMin= 1 EnMin= -228.433945272224     IErMin= 1 ErrMin= 1.20D-02
 ErrMax= 5.27D-02  0.00D+00 EMaxC= 1.00D+00 BMatC= 2.57D-01 BMatP= 2.51D-02
 IDIUse=1 WtCom= 1.00D+00 WtEn= 0.00D+00
 Coeff-Com:  0.925D+00 0.747D-01
 Coeff:      0.925D+00 0.747D-01
 Gap=     0.244 Goal=   None    Shift=    0.000
 RMSDP=6.87D-03 MaxDP=7.87D-02 DE= 1.69D-01 OVMax= 1.41D-01

 Cycle   3  Pass 0  IDiag  1:
 E= -228.477020461592     Delta-E=       -0.211901570252 Rises=F Damp=F
 DIIS: error= 7.19D-03 at cycle   3 NSaved=   3.
 NSaved= 3 IEnMin= 3 EnMin= -228.477020461592     IErMin= 3 ErrMin= 7.19D-03
 ErrMax= 7.19D-03  0.00D+00 EMaxC= 1.00D+00 BMatC= 6.12D-03 BMatP= 2.51D-02
 IDIUse=1 WtCom= 1.00D+00 WtEn= 0.00D+00
 Coeff-Com: -0.126D-01 0.126D+00 0.886D+00
 Coeff:     -0.126D-01 0.126D+00 0.886D+00
 Gap=     0.257 Goal=   None    Shift=    0.000
 RMSDP=1.33D-03 MaxDP=1.88D-02 DE=-2.12D-01 OVMax= 2.58D-02

 Cycle   4  Pass 0  IDiag  1:
 E= -228.480768199956     Delta-E=       -0.003747738364 Rises=F Damp=F
 DIIS: error= 3.33D-03 at cycle   4 NSaved=   4.
 NSaved= 4 IEnMin= 4 EnMin= -228.480768199956     IErMin= 4 ErrMin= 3.33D-03
 ErrMax= 3.33D-03  0.00D+00 EMaxC= 1.00D+00 BMatC= 1.47D-03 BMatP= 6.12D-03
 IDIUse=1 WtCom= 1.00D+00 WtEn= 0.00D+00
 Coeff-Com: -0.346D-01 0.667D-01 0.514D+00 0.454D+00
 Coeff:     -0.346D-01 0.667D-01 0.514D+00 0.454D+00
 Gap=     0.256 Goal=   None    Shift=    0.000
 RMSDP=6.46D-04 MaxDP=9.37D-03 DE=-3.75D-03 OVMax= 1.73D-02

 Cycle   5  Pass 0  IDiag  1:
 E= -228.481833965562     Delta-E=       -0.001065765606 Rises=F Damp=F
 DIIS: error= 1.68D-03 at cycle   5 NSaved=   5.
 NSaved= 5 IEnMin= 5 EnMin= -228.481833965562     IErMin= 5 ErrMin= 1.68D-03
 ErrMax= 1.68D-03  0.00D+00 EMaxC= 1.00D+00 BMatC= 2.00D-04 BMatP= 1.47D-03
 IDIUse=1 WtCom= 1.00D+00 WtEn= 0.00D+00
 Coeff-Com: -0.161D-01 0.239D-01 0.195D+00 0.288D+00 0.509D+00
 Coeff:     -0.161D-01 0.239D-01 0.195D+00 0.288D+00 0.509D+00
 Gap=     0.254 Goal=   None    Shift=    0.000
 RMSDP=2.50D-04 MaxDP=3.31D-03 DE=-1.07D-03 OVMax= 7.37D-03

 Cycle   6  Pass 0  IDiag  1:
 E= -228.481971371742     Delta-E=       -0.000137406180 Rises=F Damp=F
 DIIS: error= 4.42D-04 at cycle   6 NSaved=   6.
 NSaved= 6 IEnMin= 6 EnMin= -228.481971371742     IErMin= 6 ErrMin= 4.42D-04
 ErrMax= 4.42D-04  0.00D+00 EMaxC= 1.00D+00 BMatC= 2.87D-05 BMatP= 2.00D-04
 IDIUse=1 WtCom= 1.00D+00 WtEn= 0.00D+00
 Coeff-Com: -0.327D-02 0.360D-02 0.262D-01 0.955D-01 0.317D+00 0.561D+00
 Coeff:     -0.327D-02 0.360D-02 0.262D-01 0.955D-01 0.317D+00 0.561D+00
 Gap=     0.253 Goal=   None    Shift=    0.000
 RMSDP=7.68D-05 MaxDP=1.05D-03 DE=-1.37D-04 OVMax= 1.69D-03

 Cycle   7  Pass 0  IDiag  1:
 E= -228.481994064183     Delta-E=       -0.000022692441 Rises=F Damp=F
 DIIS: error= 1.13D-04 at cycle   7 NSaved=   7.
 NSaved= 7 IEnMin= 7 EnMin= -228.481994064183     IErMin= 7 ErrMin= 1.13D-04
 ErrMax= 1.13D-04  0.00D+00 EMaxC= 1.00D+00 BMatC= 1.30D-06 BMatP= 2.87D-05
 IDIUse=1 WtCom= 1.00D+00 WtEn= 0.00D+00
 Coeff-Com: -0.613D-03 0.253D-03 0.914D-03 0.340D-01 0.142D+00 0.293D+00
 Coeff-Com:  0.530D+00
 Coeff:     -0.613D-03 0.253D-03 0.914D-03 0.340D-01 0.142D+00 0.293D+00
 Coeff:      0.530D+00
 Gap=     0.253 Goal=   None    Shift=    0.000
 RMSDP=1.76D-05 MaxDP=2.82D-04 DE=-2.27D-05 OVMax= 3.16D-04

 Cycle   8  Pass 0  IDiag  1:
 E= -228.481995227907     Delta-E=       -0.000001163724 Rises=F Damp=F
 DIIS: error= 1.88D-05 at cycle   8 NSaved=   8.
 NSaved= 8 IEnMin= 8 EnMin= -228.481995227907     IErMin= 8 ErrMin= 1.88D-05
 ErrMax= 1.88D-05  0.00D+00 EMaxC= 1.00D+00 BMatC= 6.07D-08 BMatP= 1.30D-06
 IDIUse=1 WtCom= 1.00D+00 WtEn= 0.00D+00
 Coeff-Com:  0.108D-03-0.318D-03-0.332D-02 0.188D-02 0.194D-01 0.456D-01
 Coeff-Com:  0.195D+00 0.742D+00
 Coeff:      0.108D-03-0.318D-03-0.332D-02 0.188D-02 0.194D-01 0.456D-01
 Coeff:      0.195D+00 0.742D+00
 Gap=     0.253 Goal=   None    Shift=    0.000
 RMSDP=7.00D-06 MaxDP=1.17D-04 DE=-1.16D-06 OVMax= 1.78D-04

 Initial convergence to 1.0D-05 achieved.  Increase integral accuracy.
 Cycle   9  Pass 1  IDiag  1:
 E= -228.481995698351     Delta-E=       -0.000000470443 Rises=F Damp=F
 DIIS: error= 4.69D-06 at cycle   1 NSaved=   1.
 NSaved= 1 IEnMin= 1 EnMin= -228.481995698351     IErMin= 1 ErrMin= 4.69D-06
 ErrMax= 4.69D-06  0.00D+00 EMaxC= 1.00D+00 BMatC= 2.28D-09 BMatP= 2.28D-09
 IDIUse=1 WtCom= 1.00D+00 WtEn= 0.00D+00
 Coeff-Com:  0.100D+01
 Coeff:      0.100D+01
 Gap=     0.253 Goal=   None    Shift=    0.000
 RMSDP=7.00D-06 MaxDP=1.17D-04 DE=-4.70D-07 OVMax= 5.37D-05

 Cycle  10  Pass 1  IDiag  1:
 E= -228.481995700919     Delta-E=       -0.000000002568 Rises=F Damp=F
 DIIS: error= 4.28D-06 at cycle   2 NSaved=   2.
 NSaved= 2 IEnMin= 2 EnMin= -228.481995700919     IErMin= 2 ErrMin= 4.28D-06
 ErrMax= 4.28D-06  0.00D+00 EMaxC= 1.00D+00 BMatC= 1.68D-09 BMatP= 2.28D-09
 IDIUse=1 WtCom= 1.00D+00 WtEn= 0.00D+00
 Coeff-Com:  0.455D+00 0.545D+00
 Coeff:      0.455D+00 0.545D+00
 Gap=     0.253 Goal=   None    Shift=    0.000
 RMSDP=8.11D-07 MaxDP=1.22D-05 DE=-2.57D-09 OVMax= 1.62D-05

 Cycle  11  Pass 1  IDiag  1:
 E= -228.481995702547     Delta-E=       -0.000000001628 Rises=F Damp=F
 DIIS: error= 1.06D-06 at cycle   3 NSaved=   3.
 NSaved= 3 IEnMin= 3 EnMin= -228.481995702547     IErMin= 3 ErrMin= 1.06D-06
 ErrMax= 1.06D-06  0.00D+00 EMaxC= 1.00D+00 BMatC= 1.34D-10 BMatP= 1.68D-09
 IDIUse=1 WtCom= 1.00D+00 WtEn= 0.00D+00
 Coeff-Com:  0.171D-02 0.200D+00 0.798D+00
 Coeff:      0.171D-02 0.200D+00 0.798D+00
 Gap=     0.253 Goal=   None    Shift=    0.000
 RMSDP=3.00D-07 MaxDP=2.91D-06 DE=-1.63D-09 OVMax= 6.87D-06

 Cycle  12  Pass 1  IDiag  1:
 E= -228.481995702648     Delta-E=       -0.000000000101 Rises=F Damp=F
 DIIS: error= 9.57D-07 at cycle   4 NSaved=   4.
 NSaved= 4 IEnMin= 4 EnMin= -228.481995702648     IErMin= 4 ErrMin= 9.57D-07
 ErrMax= 9.57D-07  0.00D+00 EMaxC= 1.00D+00 BMatC= 7.06D-11 BMatP= 1.34D-10
 IDIUse=1 WtCom= 1.00D+00 WtEn= 0.00D+00
 Coeff-Com: -0.385D-01 0.907D-01 0.539D+00 0.409D+00
 Coeff:     -0.385D-01 0.907D-01 0.539D+00 0.409D+00
 Gap=     0.253 Goal=   None    Shift=    0.000
 RMSDP=1.40D-07 MaxDP=1.93D-06 DE=-1.01D-10 OVMax= 4.30D-06

 Cycle  13  Pass 1  IDiag  1:
 E= -228.481995702702     Delta-E=       -0.000000000054 Rises=F Damp=F
 DIIS: error= 2.52D-07 at cycle   5 NSaved=   5.
 NSaved= 5 IEnMin= 5 EnMin= -228.481995702702     IErMin= 5 ErrMin= 2.52D-07
 ErrMax= 2.52D-07  0.00D+00 EMaxC= 1.00D+00 BMatC= 5.40D-12 BMatP= 7.06D-11
 IDIUse=1 WtCom= 1.00D+00 WtEn= 0.00D+00
 Coeff-Com: -0.206D-01 0.115D-01 0.127D+00 0.235D+00 0.647D+00
 Coeff:     -0.206D-01 0.115D-01 0.127D+00 0.235D+00 0.647D+00
 Gap=     0.253 Goal=   None    Shift=    0.000
 RMSDP=4.45D-08 MaxDP=4.08D-07 DE=-5.43D-11 OVMax= 1.20D-06

 Cycle  14  Pass 1  IDiag  1:
 E= -228.481995702708     Delta-E=       -0.000000000005 Rises=F Damp=F
 DIIS: error= 3.90D-08 at cycle   6 NSaved=   6.
 NSaved= 6 IEnMin= 6 EnMin= -228.481995702708     IErMin= 6 ErrMin= 3.90D-08
 ErrMax= 3.90D-08  0.00D+00 EMaxC= 1.00D+00 BMatC= 1.87D-13 BMatP= 5.40D-12
 IDIUse=1 WtCom= 1.00D+00 WtEn= 0.00D+00
 Coeff-Com: -0.426D-02-0.254D-02-0.421D-03 0.499D-01 0.226D+00 0.731D+00
 Coeff:     -0.426D-02-0.254D-02-0.421D-03 0.499D-01 0.226D+00 0.731D+00
 Gap=     0.253 Goal=   None    Shift=    0.000
 RMSDP=1.11D-08 MaxDP=1.60D-07 DE=-5.40D-12 OVMax= 2.81D-07

 Cycle  15  Pass 1  IDiag  1:
 E= -228.481995702708     Delta-E=        0.000000000000 Rises=F Damp=F
 DIIS: error= 1.89D-08 at cycle   7 NSaved=   7.
 NSaved= 7 IEnMin= 6 EnMin= -228.481995702708     IErMin= 7 ErrMin= 1.89D-08
 ErrMax= 1.89D-08  0.00D+00 EMaxC= 1.00D+00 BMatC= 2.86D-14 BMatP= 1.87D-13
 IDIUse=1 WtCom= 1.00D+00 WtEn= 0.00D+00
 Coeff-Com:  0.300D-04-0.246D-02-0.142D-01 0.902D-03 0.421D-01 0.336D+00
 Coeff-Com:  0.637D+00
 Coeff:      0.300D-04-0.246D-02-0.142D-01 0.902D-03 0.421D-01 0.336D+00
 Coeff:      0.637D+00
 Gap=     0.253 Goal=   None    Shift=    0.000
 RMSDP=3.46D-09 MaxDP=3.81D-08 DE= 5.68D-14 OVMax= 7.12D-08

 SCF Done:  E(RB3LYP) =  -228.481995703     A.U. after   15 cycles
            NFock= 15  Conv=0.35D-08     -V/T= 2.0081
 KE= 2.266451199008D+02 PE=-7.677531456293D+02 EE= 2.011402840886D+02
 Leave Link  502 at Wed Mar 27 13:50:35 2024, MaxMem=  1073741824 cpu:              11.1 elap:               5.5
 (Enter /apps/versions/2023.01/rocky8/x86_64/generic/software/Gaussian/16.B.01/g16/l701.exe)
 ... and contract with generalized density number  0.
 Compute integral first derivatives.
 Leave Link  701 at Wed Mar 27 13:50:36 2024, MaxMem=  1073741824 cpu:               1.1 elap:               0.5
 (Enter /apps/versions/2023.01/rocky8/x86_64/generic/software/Gaussian/16.B.01/g16/l702.exe)
 L702 exits ... SP integral derivatives will be done elsewhere.
 Leave Link  702 at Wed Mar 27 13:50:36 2024, MaxMem=  1073741824 cpu:               0.3 elap:               0.1
 (Enter /apps/versions/2023.01/rocky8/x86_64/generic/software/Gaussian/16.B.01/g16/l703.exe)
 Integral derivatives from FoFJK, PRISM(SPDF).
 Compute integral first derivatives, UseDBF=F ICtDFT=           0.
 Calling FoFJK, ICntrl=      2127 FMM=F ISym2X=0 I1Cent= 0 IOpClX= 0 NMat=1 NMatS=1 NMatT=0.
 FoFJK:  IHMeth= 1 ICntrl=    2127 DoSepK=F KAlg= 0 I1Cent=           0 FoldK=F
 IRaf=         0 NMat=       1 IRICut=       1 DoRegI=T DoRafI=F ISym2E= 0 IDoP0=0 IntGTp=1.
 FoFCou: FMM=F IPFlag=           0 FMFlag=      100000 FMFlg1=         800
         NFxFlg=           0 DoJE=F BraDBF=F KetDBF=F FulRan=T
         wScrn=  0.000000 ICntrl=      2127 IOpCl=  0 I1Cent=           0 NGrid=           0
         NMat0=    1 NMatS0=      1 NMatT0=    0 NMatD0=    1 NMtDS0=    0 NMtDT0=    0
 Symmetry not used in FoFCou.
 Leave Link  703 at Wed Mar 27 13:50:38 2024, MaxMem=  1073741824 cpu:               4.1 elap:               1.9
 (Enter /apps/versions/2023.01/rocky8/x86_64/generic/software/Gaussian/16.B.01/g16/l716.exe)
 Dipole        = 1.08056277D+00-3.46475688D-02-1.07715264D-01
 ***** Axes restored to original set *****
 -------------------------------------------------------------------
 Center     Atomic                   Forces (Hartrees/Bohr)
 Number     Number              X              Y              Z
 -------------------------------------------------------------------
      1        6           0.005873790   -0.005542201    0.021463119
      2        1           0.003363899   -0.002409632   -0.000830118
      3        1          -0.001762686   -0.006685718   -0.001819632
      4        1           0.000253351    0.003251815    0.001833053
      5        6          -0.039878984    0.069415346   -0.025294927
      6        8           0.012133595   -0.026459185    0.006887343
      7        8           0.020017034   -0.031570425   -0.002238838
 -------------------------------------------------------------------
 Cartesian Forces:  Max     0.069415346 RMS     0.021772198
 Leave Link  716 at Wed Mar 27 13:50:38 2024, MaxMem=  1073741824 cpu:               0.4 elap:               0.1
 (Enter /apps/versions/2023.01/rocky8/x86_64/generic/software/Gaussian/16.B.01/g16/l103.exe)

 GradGradGradGradGradGradGradGradGradGradGradGradGradGradGradGradGradGrad
 Berny optimization.
 Using GEDIIS/GDIIS optimizer.
 FormGI is forming the generalized inverse of G from B-inverse, IUseBI=4.
 Internal  Forces:  Max     0.029360381 RMS     0.016198477
 Search for a local minimum.
 Step number   3 out of a maximum of  100
 All quantities printed in internal units (Hartrees-Bohrs-Radians)
 RMS Force = .16198D-01 SwitMx=.10000D-02 MixMth= 1
 Mixed Optimization -- RFO/linear search
 Update second derivatives using D2CorX and points    1    3    2
 DE=  1.54D-02 DEPred=-2.73D-03 R=-5.64D+00
 Trust test=-5.64D+00 RLast= 6.27D-01 DXMaxT set to 2.31D-01
 ITU= -1  1  0
 Use linear search instead of GDIIS.
     Eigenvalues ---    0.00429   0.06647   0.07186   0.09472   0.15461
     Eigenvalues ---    0.16005   0.16736   0.21893   0.25142   0.33292
     Eigenvalues ---    0.34233   0.34384   0.35176   0.65889   0.83393
 RFO step:  Lambda=-6.03963484D-04 EMin= 4.29439716D-03
 Quartic linear search produced a step of -0.87200.
 Iteration  1 RMS(Cart)=  0.08336536 RMS(Int)=  0.01883404
 Iteration  2 RMS(Cart)=  0.01680025 RMS(Int)=  0.00202250
 Iteration  3 RMS(Cart)=  0.00019493 RMS(Int)=  0.00201290
 Iteration  4 RMS(Cart)=  0.00000003 RMS(Int)=  0.00201290
 ITry= 1 IFail=0 DXMaxC= 2.07D-01 DCOld= 1.00D+10 DXMaxT= 2.31D-01 DXLimC= 3.00D+00 Rises=F
 Variable       Old X    -DE/DX   Delta X   Delta X   Delta X     New X
                                 (Linear)    (Quad)   (Total)
    R1        2.08763  -0.00368  -0.01238   0.00158  -0.01080   2.07683
    R2        2.08721  -0.00468  -0.00885   0.00181  -0.00704   2.08017
    R3        2.08478   0.00117  -0.00686   0.00190  -0.00496   2.07982
    R4        3.01419   0.00253  -0.06945   0.03522  -0.03423   2.97996
    R5        2.38743  -0.00319  -0.00912  -0.00073  -0.00985   2.37758
    R6        2.35445   0.01787   0.03653  -0.01399   0.02254   2.37699
    A1        1.88803   0.00362   0.01265  -0.00374   0.00900   1.89703
    A2        1.89292  -0.00193   0.01021  -0.00362   0.00662   1.89953
    A3        1.97746  -0.00097  -0.02064   0.00831  -0.01226   1.96520
    A4        1.84260   0.00111   0.01207  -0.00301   0.00905   1.85165
    A5        1.93360  -0.00849  -0.01173   0.00042  -0.01126   1.92234
    A6        1.92374   0.00684  -0.00012   0.00071   0.00060   1.92434
    A7        1.94585   0.02628   0.06964   0.00577   0.08074   2.02659
    A8        1.91740   0.02936   0.06141   0.01419   0.08092   1.99833
    A9        2.30149  -0.02545  -0.02926  -0.01935  -0.04329   2.25820
    D1        0.23278  -0.02192  -0.20647   0.00006  -0.20641   0.02637
    D2        2.93446   0.02118   0.22649  -0.00488   0.22157  -3.12716
    D3       -1.89282  -0.01965  -0.20002  -0.00131  -0.20127  -2.09409
    D4        0.80886   0.02345   0.23294  -0.00625   0.22671   1.03556
    D5        2.35744  -0.02007  -0.20768   0.00171  -0.20597   2.15147
    D6       -1.22407   0.02303   0.22528  -0.00324   0.22201  -1.00206
         Item               Value     Threshold  Converged?
 Maximum Force            0.029360     0.000450     NO 
 RMS     Force            0.016198     0.000300     NO 
 Maximum Displacement     0.207329     0.001800     NO 
 RMS     Displacement     0.087234     0.001200     NO 
 Predicted change in Energy=-1.866467D-03
 GradGradGradGradGradGradGradGradGradGradGradGradGradGradGradGradGradGrad

 Leave Link  103 at Wed Mar 27 13:50:38 2024, MaxMem=  1073741824 cpu:               0.1 elap:               0.0
 (Enter /apps/versions/2023.01/rocky8/x86_64/generic/software/Gaussian/16.B.01/g16/l202.exe)
                          Input orientation:                          
 ---------------------------------------------------------------------
[...]
 **** Fit      -0.150141
 **** Fit      -0.123708
 **** Fit      -0.123509
 **** Fit      -0.123357
 **** Fit      -0.123247
 **** Fit      -0.123172
 **** Fit      -0.123132
 **** Fit      -0.123123
 **** Fit      -0.123146
 **** Fit      -0.123201
 **** Fit      -0.123290
 **** Fit      -0.123412
 **** Fit      -0.123571
 **** Fit      -0.123769
 **** Fit      -0.124007
 **** Fit      -0.124288
 **** Fit      -0.124615
 **** Fit      -0.124989
 **** Fit      -0.125413
 **** Fit      -0.125890
 **** Fit      -0.126422
 **** Fit      -0.127013
 **** Fit      -0.127665
 **** Fit      -0.128382
 **** Fit      -0.129169
 **** Fit      -0.130030
 **** Fit      -0.130971
 **** Fit      -0.132001
 **** Fit      -0.133128
 **** Fit      -0.134363
 **** Fit      -0.135719
 **** Fit      -0.137213
 **** Fit      -0.138863
 **** Fit      -0.140692
 **** Fit      -0.142728
 **** Fit      -0.145004
 **** Fit      -0.147558
 **** Fit      -0.150435
 **** Fit      -0.123774
 **** Fit      -0.123550
 **** Fit      -0.123376
 **** Fit      -0.123246
 **** Fit      -0.123153
 **** Fit      -0.123095
 **** Fit      -0.123069
 **** Fit      -0.123074
 **** Fit      -0.123110
 **** Fit      -0.123178
 **** Fit      -0.123279
 **** Fit      -0.123414
 **** Fit      -0.123585
 **** Fit      -0.123795
 **** Fit      -0.124045
 **** Fit      -0.124338
 **** Fit      -0.124676
 **** Fit      -0.125062
 **** Fit      -0.125497
 **** Fit      -0.125984
 **** Fit      -0.126526
 **** Fit      -0.127125
 **** Fit      -0.127785
 **** Fit      -0.128510
 **** Fit      -0.129303
 **** Fit      -0.130170
 **** Fit      -0.131117
 **** Fit      -0.132151
 **** Fit      -0.133282
 **** Fit      -0.134520
 **** Fit      -0.135879
 **** Fit      -0.137374
 **** Fit      -0.139026
 **** Fit      -0.140856
 **** Fit      -0.142893
 **** Fit      -0.145170
 **** Fit      -0.147725
 **** Fit      -0.150605
 **** Fit      -0.123815
 **** Fit      -0.123573
 **** Fit      -0.123385
 **** Fit      -0.123243
 **** Fit      -0.123139
 **** Fit      -0.123071
 **** Fit      -0.123035
 **** Fit      -0.123030
 **** Fit      -0.123056
 **** Fit      -0.123113
 **** Fit      -0.123203
 **** Fit      -0.123326
 **** Fit      -0.123484
 **** Fit      -0.123680
 **** Fit      -0.123916
 **** Fit      -0.124193
 **** Fit      -0.124514
 **** Fit      -0.124882
 **** Fit      -0.125297
 **** Fit      -0.125764
 **** Fit      -0.126284
 **** Fit      -0.126860
 **** Fit      -0.127494
 **** Fit      -0.128192
 **** Fit      -0.128955
 **** Fit      -0.129790
 **** Fit      -0.130701
 **** Fit      -0.131696
 **** Fit      -0.132783
 **** Fit      -0.133971
 **** Fit      -0.135274
 **** Fit      -0.136706
 **** Fit      -0.138284
 **** Fit      -0.140030
 **** Fit      -0.141970
 **** Fit      -0.144135
 **** Fit      -0.146561
 **** Fit      -0.149292
 **** Fit      -0.123819
 **** Fit      -0.123570
 **** Fit      -0.123376
 **** Fit      -0.123229
 **** Fit      -0.123122
 **** Fit      -0.123051
 **** Fit      -0.123013
 **** Fit      -0.123006
 **** Fit      -0.123030
 **** Fit      -0.123086
 **** Fit      -0.123174
 **** Fit      -0.123296
 **** Fit      -0.123453
 **** Fit      -0.123649
 **** Fit      -0.123884
 **** Fit      -0.124161
 **** Fit      -0.124483
 **** Fit      -0.124851
 **** Fit      -0.125267
 **** Fit      -0.125735
 **** Fit      -0.126257
 **** Fit      -0.126835
 **** Fit      -0.127472
 **** Fit      -0.128173
 **** Fit      -0.128940
 **** Fit      -0.129779
 **** Fit      -0.130695
 **** Fit      -0.131696
 **** Fit      -0.132789
 **** Fit      -0.133985
 **** Fit      -0.135297
 **** Fit      -0.136739
 **** Fit      -0.138330
 **** Fit      -0.140092
 **** Fit      -0.142051
 **** Fit      -0.144239
 **** Fit      -0.146694
 **** Fit      -0.149462
 **** Fit      -0.123856
 **** Fit      -0.123599
 **** Fit      -0.123398
 **** Fit      -0.123245
 **** Fit      -0.123132
 **** Fit      -0.123055
 **** Fit      -0.123010
 **** Fit      -0.122997
 **** Fit      -0.123013
 **** Fit      -0.123061
 **** Fit      -0.123140
 **** Fit      -0.123252
 **** Fit      -0.123398
 **** Fit      -0.123581
 **** Fit      -0.123803
 **** Fit      -0.124065
 **** Fit      -0.124369
 **** Fit      -0.124719
 **** Fit      -0.125116
 **** Fit      -0.125562
 **** Fit      -0.126060
 **** Fit      -0.126612
 **** Fit      -0.127222
 **** Fit      -0.127892
 **** Fit      -0.128626
 **** Fit      -0.129428
 **** Fit      -0.130304
 **** Fit      -0.131260
 **** Fit      -0.132303
 **** Fit      -0.133442
 **** Fit      -0.134689
 **** Fit      -0.136057
 **** Fit      -0.137563
 **** Fit      -0.139225
 **** Fit      -0.141069
 **** Fit      -0.143121
 **** Fit      -0.145416
 **** Fit      -0.147996
 **** Fit      -0.150906
 **** Fit      -0.123812
 **** Fit      -0.123564
 **** Fit      -0.123372
 **** Fit      -0.123226
 **** Fit      -0.123120
 **** Fit      -0.123050
 **** Fit      -0.123012
 **** Fit      -0.123005
 **** Fit      -0.123029
 **** Fit      -0.123085
 **** Fit      -0.123173
 **** Fit      -0.123296
 **** Fit      -0.123453
 **** Fit      -0.123649
 **** Fit      -0.123884
 **** Fit      -0.124161
 **** Fit      -0.124483
 **** Fit      -0.124851
 **** Fit      -0.125267
 **** Fit      -0.125735
 **** Fit      -0.126257
 **** Fit      -0.126835
 **** Fit      -0.127472
 **** Fit      -0.128173
 **** Fit      -0.128940
 **** Fit      -0.129779
 **** Fit      -0.130695
 **** Fit      -0.131695
 **** Fit      -0.132789
 **** Fit      -0.133985
 **** Fit      -0.135297
 **** Fit      -0.136739
 **** Fit      -0.138330
 **** Fit      -0.140092
 **** Fit      -0.142050
 **** Fit      -0.144238
 **** Fit      -0.146693
 **** Fit      -0.149461
 **** Fit      -0.123801
 **** Fit      -0.123563
 **** Fit      -0.123377
 **** Fit      -0.123237
 **** Fit      -0.123135
 **** Fit      -0.123068
 **** Fit      -0.123033
 **** Fit      -0.123029
 **** Fit      -0.123055
 **** Fit      -0.123113
 **** Fit      -0.123202
 **** Fit      -0.123326
 **** Fit      -0.123484
 **** Fit      -0.123681
 **** Fit      -0.123916
 **** Fit      -0.124194
 **** Fit      -0.124515
 **** Fit      -0.124882
 **** Fit      -0.125298
 **** Fit      -0.125764
 **** Fit      -0.126284
 **** Fit      -0.126860
 **** Fit      -0.127495
 **** Fit      -0.128192
 **** Fit      -0.128955
 **** Fit      -0.129790
 **** Fit      -0.130701
 **** Fit      -0.131696
 **** Fit      -0.132782
 **** Fit      -0.133971
 **** Fit      -0.135273
 **** Fit      -0.136705
 **** Fit      -0.138283
 **** Fit      -0.140029
 **** Fit      -0.141969
 **** Fit      -0.144133
 **** Fit      -0.146559
 **** Fit      -0.149290
 **** Fit      -0.123755
 **** Fit      -0.123535
 **** Fit      -0.123365
 **** Fit      -0.123238
 **** Fit      -0.123147
 **** Fit      -0.123091
 **** Fit      -0.123066
 **** Fit      -0.123072
 **** Fit      -0.123109
 **** Fit      -0.123177
 **** Fit      -0.123278
 **** Fit      -0.123414
 **** Fit      -0.123585
 **** Fit      -0.123795
 **** Fit      -0.124046
 **** Fit      -0.124339
 **** Fit      -0.124677
 **** Fit      -0.125062
 **** Fit      -0.125497
 **** Fit      -0.125984
 **** Fit      -0.126526
 **** Fit      -0.127125
 **** Fit      -0.127785
 **** Fit      -0.128510
 **** Fit      -0.129303
 **** Fit      -0.130170
 **** Fit      -0.131117
 **** Fit      -0.132151
 **** Fit      -0.133281
 **** Fit      -0.134519
 **** Fit      -0.135878
 **** Fit      -0.137373
 **** Fit      -0.139024
 **** Fit      -0.140854
 **** Fit      -0.142891
 **** Fit      -0.145167
 **** Fit      -0.147722
 **** Fit      -0.150602
 **** Fit      -0.123686
 **** Fit      -0.123492
 **** Fit      -0.123345
 **** Fit      -0.123238
 **** Fit      -0.123166
 **** Fit      -0.123127
 **** Fit      -0.123120
 **** Fit      -0.123144
 **** Fit      -0.123200
 **** Fit      -0.123289
 **** Fit      -0.123412
 **** Fit      -0.123572
 **** Fit      -0.123769
 **** Fit      -0.124008
 **** Fit      -0.124289
 **** Fit      -0.124615
 **** Fit      -0.124990
 **** Fit      -0.125414
 **** Fit      -0.125891
 **** Fit      -0.126423
 **** Fit      -0.127013
 **** Fit      -0.127665
 **** Fit      -0.128382
 **** Fit      -0.129169
 **** Fit      -0.130029
 **** Fit      -0.130971
 **** Fit      -0.132001
 **** Fit      -0.133127
 **** Fit      -0.134362
 **** Fit      -0.135718
 **** Fit      -0.137211
 **** Fit      -0.138861
 **** Fit      -0.140689
 **** Fit      -0.142725
 **** Fit      -0.145001
 **** Fit      -0.147554
 **** Fit      -0.150431
 **** Fit      -0.123849
 **** Fit      -0.123635
 **** Fit      -0.123470
 **** Fit      -0.123346
 **** Fit      -0.123260
 **** Fit      -0.123208
 **** Fit      -0.123189
 **** Fit      -0.123201
 **** Fit      -0.123246
 **** Fit      -0.123323
 **** Fit      -0.123434
 **** Fit      -0.123582
 **** Fit      -0.123768
 **** Fit      -0.123994
 **** Fit      -0.124263
 **** Fit      -0.124577
 **** Fit      -0.124939
 **** Fit      -0.125352
 **** Fit      -0.125817
 **** Fit      -0.126338
 **** Fit      -0.126918
 **** Fit      -0.127560
 **** Fit      -0.128267
 **** Fit      -0.129044
 **** Fit      -0.129896
 **** Fit      -0.130828
 **** Fit      -0.131850
 **** Fit      -0.132968
 **** Fit      -0.134194
 **** Fit      -0.135541
 **** Fit      -0.137024
 **** Fit      -0.138663
 **** Fit      -0.140479
 **** Fit      -0.142501
 **** Fit      -0.144758
 **** Fit      -0.147289
 **** Fit      -0.150137
 **** Fit      -0.123790
 **** Fit      -0.123610
 **** Fit      -0.123473
 **** Fit      -0.123374
 **** Fit      -0.123310
 **** Fit      -0.123279
 **** Fit      -0.123280
 **** Fit      -0.123314
 **** Fit      -0.123380
 **** Fit      -0.123480
 **** Fit      -0.123616
 **** Fit      -0.123790
 **** Fit      -0.124005
 **** Fit      -0.124261
 **** Fit      -0.124563
 **** Fit      -0.124913
 **** Fit      -0.125312
 **** Fit      -0.125765
 **** Fit      -0.126274
 **** Fit      -0.126841
 **** Fit      -0.127470
 **** Fit      -0.128165
 **** Fit      -0.128930
 **** Fit      -0.129770
 **** Fit      -0.130690
 **** Fit      -0.131699
 **** Fit      -0.132804
 **** Fit      -0.134016
 **** Fit      -0.135347
 **** Fit      -0.136813
 **** Fit      -0.138432
 **** Fit      -0.140226
 **** Fit      -0.142219
 **** Fit      -0.144442
 **** Fit      -0.146929
 **** Fit      -0.149720
 **** Fit      -0.123742
 **** Fit      -0.123597
 **** Fit      -0.123492
 **** Fit      -0.123422
 **** Fit      -0.123386
 **** Fit      -0.123383
 **** Fit      -0.123413
 **** Fit      -0.123477
 **** Fit      -0.123576
 **** Fit      -0.123712
 **** Fit      -0.123886
 **** Fit      -0.124102
 **** Fit      -0.124362
 **** Fit      -0.124668
 **** Fit      -0.125024
 **** Fit      -0.125431
 **** Fit      -0.125894
 **** Fit      -0.126414
 **** Fit      -0.126996
 **** Fit      -0.127643
 **** Fit      -0.128357
 **** Fit      -0.129146
 **** Fit      -0.130012
 **** Fit      -0.130964
 **** Fit      -0.132008
 **** Fit      -0.133154
 **** Fit      -0.134413
 **** Fit      -0.135799
 **** Fit      -0.137327
 **** Fit      -0.139017
 **** Fit      -0.140892
 **** Fit      -0.142978
 **** Fit      -0.145305
 **** Fit      -0.147908
 **** Fit      -0.123889
 **** Fit      -0.123740
 **** Fit      -0.123628
 **** Fit      -0.123553
 **** Fit      -0.123513
 **** Fit      -0.123506
 **** Fit      -0.123533
 **** Fit      -0.123595
 **** Fit      -0.123693
 **** Fit      -0.123828
 **** Fit      -0.124003
 **** Fit      -0.124221
 **** Fit      -0.124483
 **** Fit      -0.124794
 **** Fit      -0.125155
 **** Fit      -0.125570
 **** Fit      -0.126042
 **** Fit      -0.126574
 **** Fit      -0.127170
 **** Fit      -0.127833
 **** Fit      -0.128567
 **** Fit      -0.129377
 **** Fit      -0.130270
 **** Fit      -0.131251
 **** Fit      -0.132329
 **** Fit      -0.133514
 **** Fit      -0.134817
 **** Fit      -0.136253
 **** Fit      -0.137839
 **** Fit      -0.139594
 **** Fit      -0.141541
 **** Fit      -0.143707
 **** Fit      -0.146120
 **** Fit      -0.148813
 **** Fit      -0.123904
 **** Fit      -0.123787
 **** Fit      -0.123707
 **** Fit      -0.123662
 **** Fit      -0.123652
 **** Fit      -0.123676
 **** Fit      -0.123735
 **** Fit      -0.123832
 **** Fit      -0.123966
 **** Fit      -0.124142
 **** Fit      -0.124361
 **** Fit      -0.124626
 **** Fit      -0.124941
 **** Fit      -0.125308
 **** Fit      -0.125730
 **** Fit      -0.126211
 **** Fit      -0.126754
 **** Fit      -0.127362
 **** Fit      -0.128040
 **** Fit      -0.128792
 **** Fit      -0.129624
 **** Fit      -0.130540
 **** Fit      -0.131548
 **** Fit      -0.132658
 **** Fit      -0.133878
 **** Fit      -0.135222
 **** Fit      -0.136703
 **** Fit      -0.138338
 **** Fit      -0.140148
 **** Fit      -0.142153
 **** Fit      -0.144378
 **** Fit      -0.146850
 **** Fit      -0.123961
 **** Fit      -0.123879
 **** Fit      -0.123833
 **** Fit      -0.123824
 **** Fit      -0.123852
 **** Fit      -0.123917
 **** Fit      -0.124022
 **** Fit      -0.124167
 **** Fit      -0.124356
 **** Fit      -0.124592
 **** Fit      -0.124877
 **** Fit      -0.125215
 **** Fit      -0.125609
 **** Fit      -0.126063
 **** Fit      -0.126579
 **** Fit      -0.127163
 **** Fit      -0.127818
 **** Fit      -0.128548
 **** Fit      -0.129358
 **** Fit      -0.130255
 **** Fit      -0.131245
 **** Fit      -0.132337
 **** Fit      -0.133540
 **** Fit      -0.134865
 **** Fit      -0.136327
 **** Fit      -0.137941
 **** Fit      -0.139724
 **** Fit      -0.141697
 **** Fit      -0.143881
 **** Fit      -0.146295
 **** Fit      -0.124172
 **** Fit      -0.124085
 **** Fit      -0.124036
 **** Fit      -0.124027
 **** Fit      -0.124057
 **** Fit      -0.124128
 **** Fit      -0.124240
 **** Fit      -0.124396
 **** Fit      -0.124599
 **** Fit      -0.124852
 **** Fit      -0.125159
 **** Fit      -0.125522
 **** Fit      -0.125945
 **** Fit      -0.126433
 **** Fit      -0.126988
 **** Fit      -0.127616
 **** Fit      -0.128320
 **** Fit      -0.129106
 **** Fit      -0.129979
 **** Fit      -0.130947
 **** Fit      -0.132016
 **** Fit      -0.133196
 **** Fit      -0.134497
 **** Fit      -0.135932
 **** Fit      -0.137516
 **** Fit      -0.139262
 **** Fit      -0.141189
 **** Fit      -0.143312
 **** Fit      -0.145647
 **** Fit      -0.124417
 **** Fit      -0.124323
 **** Fit      -0.124274
 **** Fit      -0.124268
 **** Fit      -0.124307
 **** Fit      -0.124392
 **** Fit      -0.124523
 **** Fit      -0.124705
 **** Fit      -0.124939
 **** Fit      -0.125230
 **** Fit      -0.125581
 **** Fit      -0.125996
 **** Fit      -0.126480
 **** Fit      -0.127036
 **** Fit      -0.127669
 **** Fit      -0.128385
 **** Fit      -0.129187
 **** Fit      -0.130084
 **** Fit      -0.131080
 **** Fit      -0.132185
 **** Fit      -0.133408
 **** Fit      -0.134759
 **** Fit      -0.136250
 **** Fit      -0.137894
 **** Fit      -0.139705
 **** Fit      -0.141695
 **** Fit      -0.143874
 **** Fit      -0.124625
 **** Fit      -0.124563
 **** Fit      -0.124550
 **** Fit      -0.124586
 **** Fit      -0.124673
 **** Fit      -0.124811
 **** Fit      -0.125004
 **** Fit      -0.125254
 **** Fit      -0.125565
 **** Fit      -0.125942
 **** Fit      -0.126388
 **** Fit      -0.126907
 **** Fit      -0.127505
 **** Fit      -0.128186
 **** Fit      -0.128956
 **** Fit      -0.129819
 **** Fit      -0.130783
 **** Fit      -0.131855
 **** Fit      -0.133043
 **** Fit      -0.134356
 **** Fit      -0.135803
 **** Fit      -0.137394
 **** Fit      -0.139139
 **** Fit      -0.141044
 **** Fit      -0.143111
 **** Fit      -0.124981
 **** Fit      -0.124903
 **** Fit      -0.124884
 **** Fit      -0.124924
 **** Fit      -0.125023
 **** Fit      -0.125181
 **** Fit      -0.125402
 **** Fit      -0.125689
 **** Fit      -0.126047
 **** Fit      -0.126479
 **** Fit      -0.126990
 **** Fit      -0.127586
 **** Fit      -0.128271
 **** Fit      -0.129051
 **** Fit      -0.129931
 **** Fit      -0.130918
 **** Fit      -0.132018
 **** Fit      -0.133240
 **** Fit      -0.134589
 **** Fit      -0.136074
 **** Fit      -0.137700
 **** Fit      -0.139470
 **** Fit      -0.141379
 **** Fit      -0.125396
 **** Fit      -0.125300
 **** Fit      -0.125279
 **** Fit      -0.125332
 **** Fit      -0.125458
 **** Fit      -0.125658
 **** Fit      -0.125935
 **** Fit      -0.126294
 **** Fit      -0.126738
 **** Fit      -0.127275
 **** Fit      -0.127908
 **** Fit      -0.128643
 **** Fit      -0.129487
 **** Fit      -0.130445
 **** Fit      -0.131523
 **** Fit      -0.132728
 **** Fit      -0.134065
 **** Fit      -0.135537
 **** Fit      -0.137145
 **** Fit      -0.138884
 **** Fit      -0.125917
 **** Fit      -0.125780
 **** Fit      -0.125739
 **** Fit      -0.125788
 **** Fit      -0.125926
 **** Fit      -0.126152
 **** Fit      -0.126471
 **** Fit      -0.126886
 **** Fit      -0.127401
 **** Fit      -0.128023
 **** Fit      -0.128757
 **** Fit      -0.129609
 **** Fit      -0.130582
 **** Fit      -0.131682
 **** Fit      -0.132913
 **** Fit      -0.134274
 **** Fit      -0.135762
 **** Fit      -0.137366
 **** Fit      -0.139066
 **** Fit      -0.126521
 **** Fit      -0.126335
 **** Fit      -0.126276
 **** Fit      -0.126336
 **** Fit      -0.126511
 **** Fit      -0.126800
 **** Fit      -0.127208
 **** Fit      -0.127738
 **** Fit      -0.128395
 **** Fit      -0.129185
 **** Fit      -0.130112
 **** Fit      -0.131177
 **** Fit      -0.132383
 **** Fit      -0.133723
 **** Fit      -0.135186
 **** Fit      -0.136749
 **** Fit      -0.127246
 **** Fit      -0.126985
 **** Fit      -0.126897
 **** Fit      -0.126970
 **** Fit      -0.127198
 **** Fit      -0.127578
 **** Fit      -0.128113
 **** Fit      -0.128806
 **** Fit      -0.129661
 **** Fit      -0.130676
 **** Fit      -0.131848
 **** Fit      -0.133165
 **** Fit      -0.134601
 **** Fit      -0.136112
 **** Fit      -0.128125
 **** Fit      -0.127746
 **** Fit      -0.127613
 **** Fit      -0.127707
 **** Fit      -0.128015
 **** Fit      -0.128534
 **** Fit      -0.129262
 **** Fit      -0.130192
 **** Fit      -0.131315
 **** Fit      -0.132603
 **** Fit      -0.134011
 **** Fit      -0.135458
 **** Fit      -0.128644
 **** Fit      -0.128436
 **** Fit      -0.128568
 **** Fit      -0.129018
 **** Fit      -0.129769
 **** Fit      -0.130793
 **** Fit      -0.132041
 **** Fit      -0.133420
 **** Fit      -0.129380
 **** Fit      -0.129601
 **** Fit      -0.130336
 **** Fit      -0.131481
 **** Fit      -0.132834
 **** Fit      -0.130461
 **** Fit      -0.130975
 -----------------------------------------------------------------
 Leave Link  602 at Wed Mar 27 13:51:02 2024, MaxMem=   104857600 cpu:               0.4 elap:               0.4
 (Enter /apps/versions/2023.01/rocky8/x86_64/generic/software/Gaussian/16.B.01/g16/l9999.exe)

 Test job not archived.
 1\1\GINC-LOGIN1\SP\RHF\6-31G(d)\C2H3O2(1-)\P315462\27-Mar-2024\0\\#P H
 F/6-31G* SCF=(Tight,MaxCycle=900) Geom=AllCheck Guess=Read Pop=MK IOp(
 6/33=2,6/41=10,6/42=17)\\Deprotonated Aspartate\\-1,1\C,0,-4.424050854
 5,2.332737832,2.9579161509\H,0,-5.3414388487,2.49712434,3.538188306\H,
 0,-4.1993583886,3.2432319368,2.3824181766\H,0,-3.582384825,2.190200565
 1,3.6518353086\C,0,-4.5420917549,1.0973118645,1.9882914728\O,0,-5.6479
 886333,0.5002198691,1.9931265436\O,0,-3.5026866951,0.8611735924,1.3212
 240414\\Version=ES64L-G16RevB.01\State=1-A\HF=-227.222793\RMSD=6.709e-
 09\Dipole=0.1106449,1.1962832,0.9400707\Quadrupole=-2.696403,1.0614496
 ,1.6349534,-1.3534845,1.9752913,-1.9481452\PG=C01 [X(C2H3O2)]\\@


 ROSE IS A RED
 TY COBB IS BLUE
 'CAUSE PETE JUST HIT
 NO. 4592.
 Job cpu time:       0 days  0 hours  0 minutes  1.5 seconds.
 Elapsed time:       0 days  0 hours  0 minutes  1.5 seconds.
 File lengths (MBytes):  RWF=     17 Int=      0 D2E=      0 Chk=      2 Scr=      2
 Normal termination of Gaussian 16 at Wed Mar 27 13:51:02 2024.
