 Entering Gaussian System, Link 0=g16
 Input=ASH.com
 Output=ASH.log
 Initial command:
 /usr/local/gaussian/gaussian16.c01-legacy/g16/l1.exe "/scratch/master9/Gau-3410140.inp" -scrdir="/scratch/master9/"
 Entering Link 1 = /usr/local/gaussian/gaussian16.c01-legacy/g16/l1.exe PID=   3410141.
  
 Copyright (c) 1988-2019, Gaussian, Inc.  All Rights Reserved.
  
 This is part of the Gaussian(R) 16 program.  It is based on
 the Gaussian(R) 09 system (copyright 2009, Gaussian, Inc.),
 the Gaussian(R) 03 system (copyright 2003, Gaussian, Inc.),
 the Gaussian(R) 98 system (copyright 1998, Gaussian, Inc.),
 the Gaussian(R) 94 system (copyright 1995, Gaussian, Inc.),
 the Gaussian 92(TM) system (copyright 1992, Gaussian, Inc.),
 the Gaussian 90(TM) system (copyright 1990, Gaussian, Inc.),
 the Gaussian 88(TM) system (copyright 1988, Gaussian, Inc.),
 the Gaussian 86(TM) system (copyright 1986, Carnegie Mellon
 University), and the Gaussian 82(TM) system (copyright 1983,
 Carnegie Mellon University). Gaussian is a federally registered
 trademark of Gaussian, Inc.
  
 This software contains proprietary and confidential information,
 including trade secrets, belonging to Gaussian, Inc.
  
 This software is provided under written license and may be
 used, copied, transmitted, or stored only in accord with that
 written license.
  
 The following legend is applicable only to US Government
 contracts under FAR:
  
                    RESTRICTED RIGHTS LEGEND
  
 Use, reproduction and disclosure by the US Government is
 subject to restrictions as set forth in subparagraphs (a)
 and (c) of the Commercial Computer Software - Restricted
 Rights clause in FAR 52.227-19.
  
 Gaussian, Inc.
 340 Quinnipiac St., Bldg. 40, Wallingford CT 06492
  
  
 ---------------------------------------------------------------
 Warning -- This program may not be used in any manner that
 competes with the business of Gaussian, Inc. or will provide
 assistance to any competitor of Gaussian, Inc.  The licensee
 of this program is prohibited from giving any competitor of
 Gaussian, Inc. access to this program.  By using this program,
 the user acknowledges that Gaussian, Inc. is engaged in the
 business of creating and licensing software in the field of
 computational chemistry and represents and warrants to the
 licensee that it is not a competitor of Gaussian, Inc. and that
 it will not use this program in any manner prohibited above.
 ---------------------------------------------------------------
  

 Cite this work as:
 Gaussian 16, Revision C.01,
 M. J. Frisch, G. W. Trucks, H. B. Schlegel, G. E. Scuseria, 
 M. A. Robb, J. R. Cheeseman, G. Scalmani, V. Barone, 
 G. A. Petersson, H. Nakatsuji, X. Li, M. Caricato, A. V. Marenich, 
 J. Bloino, B. G. Janesko, R. Gomperts, B. Mennucci, H. P. Hratchian, 
 J. V. Ortiz, A. F. Izmaylov, J. L. Sonnenberg, D. Williams-Young, 
 F. Ding, F. Lipparini, F. Egidi, J. Goings, B. Peng, A. Petrone, 
 T. Henderson, D. Ranasinghe, V. G. Zakrzewski, J. Gao, N. Rega, 
 G. Zheng, W. Liang, M. Hada, M. Ehara, K. Toyota, R. Fukuda, 
 J. Hasegawa, M. Ishida, T. Nakajima, Y. Honda, O. Kitao, H. Nakai, 
 T. Vreven, K. Throssell, J. A. Montgomery, Jr., J. E. Peralta, 
 F. Ogliaro, M. J. Bearpark, J. J. Heyd, E. N. Brothers, K. N. Kudin, 
 V. N. Staroverov, T. A. Keith, R. Kobayashi, J. Normand, 
 K. Raghavachari, A. P. Rendell, J. C. Burant, S. S. Iyengar, 
 J. Tomasi, M. Cossi, J. M. Millam, M. Klene, C. Adamo, R. Cammi, 
 J. W. Ochterski, R. L. Martin, K. Morokuma, O. Farkas, 
 J. B. Foresman, and D. J. Fox, Gaussian, Inc., Wallingford CT, 2019.
 
 ******************************************
 Gaussian 16:  EM64L-G16RevC.01  3-Jul-2019
                 5-Feb-2024 
 ******************************************
 %nproc=1
 Will use up to    1 processors via shared memory.
 %chk=ASH
 %Mem=1GB
 ------------------------
 # HF/6-31G* scrf=smd opt
 ------------------------
 1/18=20,19=15,26=6,38=1/1,3;
 2/9=110,12=2,17=6,18=5,40=1/2;
 3/5=1,6=6,7=1,11=9,25=1,30=1,70=32201,71=1/1,2,3;
 4//1;
 5/5=2,38=5/2;
 6/7=2,8=2,9=2,10=2,28=1/1;
 7//1,2,3,16;
 1/18=20,19=15,26=6/3(2);
 2/9=110/2;
 99//99;
 2/9=110/2;
 3/5=1,6=6,7=1,11=9,25=1,30=1,70=32205,71=1/1,2,3;
 4/5=5,16=3,69=1/1;
 5/5=2,38=5/2;
 7//1,2,3,16;
 1/18=20,19=15,26=6/3(-5);
 2/9=110/2;
 6/7=2,8=2,9=2,10=2,19=2,28=1/1;
 99/9=1/99;
 ------------------
 Aspartate molecule
 ------------------
 Symbolic Z-matrix:
 Charge =  0 Multiplicity = 1
 C                    -2.46445   1.95499  -0.28495 
 O                    -2.5215    0.84355  -0.7909 
 O                    -1.28726   2.55624   0.0021 
 H                    -1.37399   3.43509   0.41923 
 C                    -3.65191   2.81874   0.05057 
 C                    -4.99068   2.16605  -0.30428 
 H                    -3.54828   3.74941  -0.52194 
 H                    -3.6153    3.06843   1.11744 
 N                    -5.18286   0.87321   0.37639 
 H                    -4.4722    0.21245   0.04283 
 H                    -6.08664   0.47378   0.12248 
 C                    -6.10306   3.14955   0.10694 
 H                    -5.06141   1.98216  -1.38288 
 O                    -6.62643   3.20426   1.21032 
 O                    -6.43311   4.02699  -0.87266 
 H                    -5.98943   3.88308  -1.72843 
 

 GradGradGradGradGradGradGradGradGradGradGradGradGradGradGradGradGradGrad
 Berny optimization.
 Initialization pass.
                           ----------------------------
                           !    Initial Parameters    !
                           ! (Angstroms and Degrees)  !
 --------------------------                            --------------------------
 ! Name  Definition              Value          Derivative Info.                !
 --------------------------------------------------------------------------------
 ! R1    R(1,2)                  1.2225         estimate D2E/DX2                !
 ! R2    R(1,3)                  1.3527         estimate D2E/DX2                !
 ! R3    R(1,5)                  1.5062         estimate D2E/DX2                !
 ! R4    R(3,4)                  0.9767         estimate D2E/DX2                !
 ! R5    R(5,6)                  1.5311         estimate D2E/DX2                !
 ! R6    R(5,7)                  1.0976         estimate D2E/DX2                !
 ! R7    R(5,8)                  1.0963         estimate D2E/DX2                !
 ! R8    R(6,9)                  1.4737         estimate D2E/DX2                !
 ! R9    R(6,12)                 1.5407         estimate D2E/DX2                !
 ! R10   R(6,13)                 1.0964         estimate D2E/DX2                !
 ! R11   R(9,10)                 1.0261         estimate D2E/DX2                !
 ! R12   R(9,11)                 1.0202         estimate D2E/DX2                !
 ! R13   R(12,14)                1.2224         estimate D2E/DX2                !
 ! R14   R(12,15)                1.3559         estimate D2E/DX2                !
 ! R15   R(15,16)                0.9746         estimate D2E/DX2                !
 ! A1    A(2,1,3)              122.1779         estimate D2E/DX2                !
 ! A2    A(2,1,5)              125.2225         estimate D2E/DX2                !
 ! A3    A(3,1,5)              112.5776         estimate D2E/DX2                !
 ! A4    A(1,3,4)              114.414          estimate D2E/DX2                !
 ! A5    A(1,5,6)              113.1574         estimate D2E/DX2                !
 ! A6    A(1,5,7)              107.195          estimate D2E/DX2                !
 ! A7    A(1,5,8)              108.7267         estimate D2E/DX2                !
 ! A8    A(6,5,7)              108.8527         estimate D2E/DX2                !
 ! A9    A(6,5,8)              110.5992         estimate D2E/DX2                !
 ! A10   A(7,5,8)              108.1397         estimate D2E/DX2                !
 ! A11   A(5,6,9)              112.3935         estimate D2E/DX2                !
 ! A12   A(5,6,12)             107.2971         estimate D2E/DX2                !
 ! A13   A(5,6,13)             110.8481         estimate D2E/DX2                !
 ! A14   A(9,6,12)             110.0343         estimate D2E/DX2                !
 ! A15   A(9,6,13)             107.387          estimate D2E/DX2                !
 ! A16   A(12,6,13)            108.8472         estimate D2E/DX2                !
 ! A17   A(6,9,10)             108.9332         estimate D2E/DX2                !
 ! A18   A(6,9,11)             110.1237         estimate D2E/DX2                !
 ! A19   A(10,9,11)            106.291          estimate D2E/DX2                !
 ! A20   A(6,12,14)            125.3515         estimate D2E/DX2                !
 ! A21   A(6,12,15)            113.3288         estimate D2E/DX2                !
 ! A22   A(14,12,15)           121.2606         estimate D2E/DX2                !
 ! A23   A(12,15,16)           115.3408         estimate D2E/DX2                !
 ! D1    D(2,1,3,4)           -178.9094         estimate D2E/DX2                !
 ! D2    D(5,1,3,4)              2.7158         estimate D2E/DX2                !
 ! D3    D(2,1,5,6)              0.1254         estimate D2E/DX2                !
 ! D4    D(2,1,5,7)           -119.8917         estimate D2E/DX2                !
 ! D5    D(2,1,5,8)            123.4272         estimate D2E/DX2                !
 ! D6    D(3,1,5,6)            178.4415         estimate D2E/DX2                !
 ! D7    D(3,1,5,7)             58.4244         estimate D2E/DX2                !
 ! D8    D(3,1,5,8)            -58.2567         estimate D2E/DX2                !
 ! D9    D(1,5,6,9)             58.2597         estimate D2E/DX2                !
 ! D10   D(1,5,6,12)           179.3499         estimate D2E/DX2                !
 ! D11   D(1,5,6,13)           -61.9226         estimate D2E/DX2                !
 ! D12   D(7,5,6,9)            177.325          estimate D2E/DX2                !
 ! D13   D(7,5,6,12)           -61.5848         estimate D2E/DX2                !
 ! D14   D(7,5,6,13)            57.1427         estimate D2E/DX2                !
 ! D15   D(8,5,6,9)            -64.0031         estimate D2E/DX2                !
 ! D16   D(8,5,6,12)            57.0871         estimate D2E/DX2                !
 ! D17   D(8,5,6,13)           175.8146         estimate D2E/DX2                !
 ! D18   D(5,6,9,10)           -64.2942         estimate D2E/DX2                !
 ! D19   D(5,6,9,11)           179.5041         estimate D2E/DX2                !
 ! D20   D(12,6,9,10)          176.1983         estimate D2E/DX2                !
 ! D21   D(12,6,9,11)           59.9966         estimate D2E/DX2                !
 ! D22   D(13,6,9,10)           57.8716         estimate D2E/DX2                !
 ! D23   D(13,6,9,11)          -58.3301         estimate D2E/DX2                !
 ! D24   D(5,6,12,14)          -88.091          estimate D2E/DX2                !
 ! D25   D(5,6,12,15)           89.1292         estimate D2E/DX2                !
 ! D26   D(9,6,12,14)           34.4746         estimate D2E/DX2                !
 ! D27   D(9,6,12,15)         -148.3051         estimate D2E/DX2                !
 ! D28   D(13,6,12,14)         151.8981         estimate D2E/DX2                !
 ! D29   D(13,6,12,15)         -30.8817         estimate D2E/DX2                !
 ! D30   D(6,12,15,16)           4.9667         estimate D2E/DX2                !
 ! D31   D(14,12,15,16)       -177.6855         estimate D2E/DX2                !
 --------------------------------------------------------------------------------
 Trust Radius=3.00D-01 FncErr=5.00D-06 GrdErr=5.00D-06 EigMax=2.50D+02 EigMin=1.00D-04
 Number of steps in this run=     79 maximum allowed number of steps=    100.
 GradGradGradGradGradGradGradGradGradGradGradGradGradGradGradGradGradGrad

                          Input orientation:                          
 ---------------------------------------------------------------------
 Center     Atomic      Atomic             Coordinates (Angstroms)
 Number     Number       Type             X           Y           Z
 ---------------------------------------------------------------------
      1          6           0       -2.464450    1.954990   -0.284950
      2          8           0       -2.521500    0.843550   -0.790900
      3          8           0       -1.287260    2.556240    0.002100
      4          1           0       -1.373990    3.435090    0.419230
      5          6           0       -3.651910    2.818740    0.050570
      6          6           0       -4.990680    2.166050   -0.304280
      7          1           0       -3.548280    3.749410   -0.521940
      8          1           0       -3.615300    3.068430    1.117440
      9          7           0       -5.182860    0.873210    0.376390
     10          1           0       -4.472200    0.212450    0.042830
     11          1           0       -6.086640    0.473780    0.122480
     12          6           0       -6.103060    3.149550    0.106940
     13          1           0       -5.061410    1.982160   -1.382880
     14          8           0       -6.626430    3.204260    1.210320
     15          8           0       -6.433110    4.026990   -0.872660
     16          1           0       -5.989430    3.883080   -1.728430
 ---------------------------------------------------------------------
                    Distance matrix (angstroms):
                    1          2          3          4          5
     1  C    0.000000
     2  O    1.222513   0.000000
     3  O    1.352655   2.255106   0.000000
     4  H    1.968672   3.081765   0.976676   0.000000
     5  C    1.506220   2.426371   2.379669   2.388455   0.000000
     6  C    2.535105   2.843001   3.736501   3.900561   1.531087
     7  H    2.109691   3.093645   2.609690   2.390007   1.097567
     8  H    2.128592   3.128618   2.631747   2.376007   1.096311
     9  N    2.999562   2.906249   4.260092   4.590485   2.497009
    10  H    2.678609   2.213283   3.954599   4.486200   2.732340
    11  H    3.934494   3.698813   5.233085   5.573732   3.381112
    12  C    3.849680   4.353312   4.853343   4.747964   2.474015
    13  H    2.819644   2.845701   4.061028   4.353811   2.177461
    14  O    4.595496   5.140845   5.512392   5.316694   3.215807
    15  O    4.515401   5.043973   5.422922   5.254904   3.169747
    16  H    4.269268   4.705767   5.183208   5.110325   3.124366
                    6          7          8          9         10
     6  C    0.000000
     7  H    2.152887   0.000000
     8  H    2.174223   1.776455   0.000000
     9  N    1.473662   3.428028   2.797390   0.000000
    10  H    2.050819   3.699011   3.169493   1.026111   0.000000
    11  H    2.060832   4.193841   3.718827   1.020212   1.637392
    12  C    1.540702   2.698559   2.686381   2.470040   3.360115
    13  H    1.096447   2.480716   3.085906   2.083159   2.347699
    14  O    2.459181   3.573922   3.015623   2.865855   3.867126
    15  O    2.422139   2.919298   3.580417   3.615187   4.385659
    16  H    2.444156   2.726298   3.794618   3.760338   4.348893
                   11         12         13         14         15
    11  H    0.000000
    12  C    2.675866   0.000000
    13  H    2.364829   2.160416   0.000000
    14  O    2.988359   1.222439   3.266114   0.000000
    15  O    3.706163   1.355895   2.514600   2.247902   0.000000
    16  H    3.880547   1.979788   2.143390   3.082664   0.974630
                   16
    16  H    0.000000
 Stoichiometry    C4H7NO4
 Framework group  C1[X(C4H7NO4)]
 Deg. of freedom    42
 Full point group                 C1      NOp   1
 Largest Abelian subgroup         C1      NOp   1
 Largest concise Abelian subgroup C1      NOp   1
                         Standard orientation:                         
 ---------------------------------------------------------------------
 Center     Atomic      Atomic             Coordinates (Angstroms)
 Number     Number       Type             X           Y           Z
 ---------------------------------------------------------------------
      1          6           0        1.947006   -0.131890    0.037160
      2          8           0        2.261853    0.894716    0.621533
      3          8           0        2.866856   -1.015629   -0.412904
      4          1           0        2.491016   -1.787834   -0.878028
      5          6           0        0.534363   -0.581032   -0.230067
      6          6           0       -0.518642    0.391644    0.307810
      7          1           0        0.404142   -1.552934    0.262986
      8          1           0        0.409500   -0.726450   -1.309493
      9          7           0       -0.374416    1.744560   -0.258315
     10          1           0        0.524202    2.137589    0.043211
     11          1           0       -1.096295    2.360561    0.116207
     12          6           0       -1.901293   -0.185886   -0.050657
     13          1           0       -0.444756    0.483043    1.397940
     14          8           0       -2.504558    0.019056   -1.093934
     15          8           0       -2.395836   -1.021660    0.895577
     16          1           0       -1.862020   -1.094775    1.707734
 ---------------------------------------------------------------------
 Rotational constants (GHZ):           3.0825394           0.8931554           0.8050097
 Standard basis: 6-31G(d) (6D, 7F)
 There are   149 symmetry adapted cartesian basis functions of A   symmetry.
 There are   149 symmetry adapted basis functions of A   symmetry.
   149 basis functions,   280 primitive gaussians,   149 cartesian basis functions
    35 alpha electrons       35 beta electrons
       nuclear repulsion energy       461.7474023953 Hartrees.
 NAtoms=   16 NActive=   16 NUniq=   16 SFac= 1.00D+00 NAtFMM=   60 NAOKFM=F Big=F
 Integral buffers will be    131072 words long.
 Raffenetti 1 integral format.
 Two-electron integral symmetry is turned on.
 ------------------------------------------------------------------------------
 Polarizable Continuum Model (PCM)
 =================================
 Model                : PCM.
 Atomic radii         : SMD-Coulomb.
 Polarization charges : Total charges.
 Charge compensation  : None.
 Solution method      : On-the-fly selection.
 Cavity type          : VdW (van der Waals Surface) (Alpha=1.000).
 Cavity algorithm     : GePol (No added spheres)
                        Default sphere list used, NSphG=   16.
                        Lebedev-Laikov grids with approx.  5.0 points / Ang**2.
                        Smoothing algorithm: York/Karplus (Gamma=1.0000).
                        Polarization charges: spherical gaussians, with
                                              point-specific exponents (IZeta= 3).
                        Self-potential: point-specific (ISelfS= 7).
                        Self-field    : sphere-specific E.n sum rule (ISelfD= 2).
 1st derivatives      : Analytical E(r).r(x)/FMM algorithm (CHGder, D1EAlg=3).
                        Cavity 1st derivative terms included.
 Solvent              : Water, Eps=  78.355300 Eps(inf)=   1.777849
 ------------------------------------------------------------------------------
 Spheres list:
 ISph  on   Nord     Re0    Alpha      Xe            Ye            Ze
    1   C      1    1.8500  1.000      1.947006     -0.131890      0.037160
    2   O      2    1.5200  1.000      2.261853      0.894716      0.621533
    3   O      3    1.5200  1.000      2.866856     -1.015629     -0.412904
    4   H      4    1.2000  1.000      2.491016     -1.787834     -0.878028
    5   C      5    1.8500  1.000      0.534363     -0.581032     -0.230067
    6   C      6    1.8500  1.000     -0.518642      0.391644      0.307810
    7   H      7    1.2000  1.000      0.404142     -1.552934      0.262986
    8   H      8    1.2000  1.000      0.409500     -0.726450     -1.309493
    9   N      9    1.8900  1.000     -0.374416      1.744560     -0.258315
   10   H     10    1.2000  1.000      0.524202      2.137589      0.043211
   11   H     11    1.2000  1.000     -1.096295      2.360561      0.116207
   12   C     12    1.8500  1.000     -1.901293     -0.185886     -0.050657
   13   H     13    1.2000  1.000     -0.444756      0.483043      1.397940
   14   O     14    1.5200  1.000     -2.504558      0.019056     -1.093934
   15   O     15    1.5200  1.000     -2.395836     -1.021660      0.895577
   16   H     16    1.2000  1.000     -1.862020     -1.094775      1.707734
 ------------------------------------------------------------------------------
 ------------------------------------------------------------------------------
 Atomic radii for non-electrostatic terms: SMD-CDS.
 ------------------------------------------------------------------------------
 Nuclear repulsion after PCM non-electrostatic terms =      461.7552532432 Hartrees.
 One-electron integrals computed using PRISM.
 NBasis=   149 RedAO= T EigKep=  2.49D-03  NBF=   149
 NBsUse=   149 1.00D-06 EigRej= -1.00D+00 NBFU=   149
 ExpMin= 1.61D-01 ExpMax= 5.48D+03 ExpMxC= 8.25D+02 IAcc=3 IRadAn=         5 AccDes= 0.00D+00
 Harris functional with IExCor=  205 and IRadAn=       5 diagonalized for initial guess.
 HarFok:  IExCor=  205 AccDes= 0.00D+00 IRadAn=         5 IDoV= 1 UseB2=F ITyADJ=14
 ICtDFT=  3500011 ScaDFX=  1.000000  1.000000  1.000000  1.000000
 FoFCou: FMM=F IPFlag=           0 FMFlag=      100000 FMFlg1=           0
         NFxFlg=           0 DoJE=T BraDBF=F KetDBF=T FulRan=T
         wScrn=  0.000000 ICntrl=       500 IOpCl=  0 I1Cent=   200000004 NGrid=           0
         NMat0=    1 NMatS0=      1 NMatT0=    0 NMatD0=    1 NMtDS0=    0 NMtDT0=    0
 Petite list used in FoFCou.
 Keep R1 ints in memory in canonical form, NReq=64134755.
 Requested convergence on RMS density matrix=1.00D-08 within 128 cycles.
 Requested convergence on MAX density matrix=1.00D-06.
 Requested convergence on             energy=1.00D-06.
 No special actions if energy rises.
 Inv3:  Mode=1 IEnd=     4248300.
 Iteration    1 A*A^-1 deviation from unit magnitude is 4.88D-15 for    476.
 Iteration    1 A*A^-1 deviation from orthogonality  is 4.08D-15 for    912    520.
 Iteration    1 A^-1*A deviation from unit magnitude is 5.11D-15 for    581.
 Iteration    1 A^-1*A deviation from orthogonality  is 5.23D-15 for   1010   1009.
 Error on total polarization charges =  0.02789
 SCF Done:  E(RHF) =  -509.491973373     A.U. after   13 cycles
            NFock= 13  Conv=0.97D-08     -V/T= 2.0035
 SMD-CDS (non-electrostatic) energy       (kcal/mol) =       4.93
 (included in total energy above)

 **********************************************************************

            Population analysis using the SCF Density.

 **********************************************************************

 Orbital symmetries:
       Occupied  (A) (A) (A) (A) (A) (A) (A) (A) (A) (A) (A) (A)
                 (A) (A) (A) (A) (A) (A) (A) (A) (A) (A) (A) (A)
                 (A) (A) (A) (A) (A) (A) (A) (A) (A) (A) (A)
       Virtual   (A) (A) (A) (A) (A) (A) (A) (A) (A) (A) (A) (A)
                 (A) (A) (A) (A) (A) (A) (A) (A) (A) (A) (A) (A)
                 (A) (A) (A) (A) (A) (A) (A) (A) (A) (A) (A) (A)
                 (A) (A) (A) (A) (A) (A) (A) (A) (A) (A) (A) (A)
                 (A) (A) (A) (A) (A) (A) (A) (A) (A) (A) (A) (A)
                 (A) (A) (A) (A) (A) (A) (A) (A) (A) (A) (A) (A)
                 (A) (A) (A) (A) (A) (A) (A) (A) (A) (A) (A) (A)
                 (A) (A) (A) (A) (A) (A) (A) (A) (A) (A) (A) (A)
                 (A) (A) (A) (A) (A) (A) (A) (A) (A) (A) (A) (A)
                 (A) (A) (A) (A) (A) (A)
 The electronic state is 1-A.
 Alpha  occ. eigenvalues --  -20.62092 -20.62056 -20.57178 -20.57083 -15.54566
 Alpha  occ. eigenvalues --  -11.41065 -11.40767 -11.28496 -11.25329  -1.46035
 Alpha  occ. eigenvalues --   -1.45771  -1.36980  -1.36610  -1.18794  -1.04750
 Alpha  occ. eigenvalues --   -0.92957  -0.84001  -0.82162  -0.72821  -0.71344
 Alpha  occ. eigenvalues --   -0.68952  -0.66959  -0.65870  -0.64337  -0.62427
 Alpha  occ. eigenvalues --   -0.61079  -0.57854  -0.56183  -0.53554  -0.52814
 Alpha  occ. eigenvalues --   -0.49219  -0.48712  -0.47217  -0.44846  -0.39929
 Alpha virt. eigenvalues --    0.16635   0.17063   0.22017   0.23625   0.26655
 Alpha virt. eigenvalues --    0.29986   0.32704   0.33596   0.35332   0.38292
 Alpha virt. eigenvalues --    0.39392   0.44529   0.45398   0.49541   0.53095
 Alpha virt. eigenvalues --    0.54873   0.59837   0.72834   0.75161   0.76549
 Alpha virt. eigenvalues --    0.77837   0.79395   0.84042   0.85716   0.88358
 Alpha virt. eigenvalues --    0.89964   0.92540   0.95135   0.97829   0.98493
 Alpha virt. eigenvalues --    1.02210   1.03452   1.04501   1.08381   1.10686
 Alpha virt. eigenvalues --    1.11006   1.14851   1.16385   1.18658   1.20592
 Alpha virt. eigenvalues --    1.21295   1.23680   1.23908   1.25518   1.26139
 Alpha virt. eigenvalues --    1.28704   1.29580   1.32415   1.35778   1.37053
 Alpha virt. eigenvalues --    1.38730   1.44541   1.52431   1.56506   1.63541
 Alpha virt. eigenvalues --    1.64258   1.65743   1.68520   1.71999   1.72933
 Alpha virt. eigenvalues --    1.80616   1.88392   1.92784   1.96355   1.99382
 Alpha virt. eigenvalues --    2.01522   2.03577   2.05079   2.05639   2.08035
 Alpha virt. eigenvalues --    2.08831   2.10046   2.13496   2.16571   2.18309
 Alpha virt. eigenvalues --    2.19819   2.24393   2.26551   2.27478   2.30045
 Alpha virt. eigenvalues --    2.32288   2.36596   2.44207   2.49029   2.58822
 Alpha virt. eigenvalues --    2.62081   2.69170   2.71563   2.74938   2.76996
 Alpha virt. eigenvalues --    2.79990   2.83461   2.85600   2.92306   2.94125
 Alpha virt. eigenvalues --    2.97007   3.02485   3.07999   3.12553   3.18093
 Alpha virt. eigenvalues --    3.21424   3.32655   3.34918   3.42599   3.45714
 Alpha virt. eigenvalues --    4.17423   4.26487   4.32716   4.51114   4.54195
 Alpha virt. eigenvalues --    4.65352   4.77211   4.85693   5.08372
          Condensed to atoms (all electrons):
               1          2          3          4          5          6
     1  C    3.993346   0.564440   0.297460  -0.017081   0.377206  -0.038789
     2  O    0.564440   8.224436  -0.060471   0.002130  -0.088011   0.008735
     3  O    0.297460  -0.060471   8.359311   0.252496  -0.089440   0.003667
     4  H   -0.017081   0.002130   0.252496   0.221648   0.002349   0.000204
     5  C    0.377206  -0.088011  -0.089440   0.002349   5.397991   0.264667
     6  C   -0.038789   0.008735   0.003667   0.000204   0.264667   5.135404
     7  H   -0.023346   0.001156   0.000020   0.000041   0.373471  -0.032224
     8  H   -0.023632   0.001124   0.000382   0.000147   0.371007  -0.032621
     9  N   -0.002637  -0.009844  -0.000098   0.000001  -0.052673   0.240926
    10  H    0.000357   0.012123   0.000063  -0.000010  -0.005534  -0.027075
    11  H   -0.000005   0.000238   0.000001   0.000000   0.004485  -0.033285
    12  C    0.002764   0.000091  -0.000049  -0.000009  -0.034284   0.338131
    13  H   -0.002538   0.002101   0.000050  -0.000005  -0.039476   0.416805
    14  O   -0.000056   0.000000  -0.000000  -0.000000   0.000297  -0.078324
    15  O   -0.000043   0.000000   0.000000  -0.000000   0.000701  -0.081167
    16  H   -0.000018  -0.000002  -0.000000  -0.000000  -0.000561   0.003506
               7          8          9         10         11         12
     1  C   -0.023346  -0.023632  -0.002637   0.000357  -0.000005   0.002764
     2  O    0.001156   0.001124  -0.009844   0.012123   0.000238   0.000091
     3  O    0.000020   0.000382  -0.000098   0.000063   0.000001  -0.000049
     4  H    0.000041   0.000147   0.000001  -0.000010   0.000000  -0.000009
     5  C    0.373471   0.371007  -0.052673  -0.005534   0.004485  -0.034284
     6  C   -0.032224  -0.032621   0.240926  -0.027075  -0.033285   0.338131
     7  H    0.425114  -0.012144   0.002686  -0.000019  -0.000075  -0.004209
     8  H   -0.012144   0.425904   0.003438  -0.000078  -0.000103  -0.003229
     9  N    0.002686   0.003438   7.180408   0.318644   0.327113  -0.049685
    10  H   -0.000019  -0.000078   0.318644   0.325751  -0.019687   0.003952
    11  H   -0.000075  -0.000103   0.327113  -0.019687   0.347998  -0.003075
    12  C   -0.004209  -0.003229  -0.049685   0.003952  -0.003075   4.114735
    13  H    0.000739   0.003245  -0.047468  -0.001419  -0.001136  -0.048671
    14  O    0.000049   0.002357   0.004636   0.000017   0.001426   0.571498
    15  O    0.002785   0.000193   0.002014  -0.000063   0.000102   0.275140
    16  H    0.000445   0.000011  -0.000007  -0.000009  -0.000023  -0.015100
              13         14         15         16
     1  C   -0.002538  -0.000056  -0.000043  -0.000018
     2  O    0.002101   0.000000   0.000000  -0.000002
     3  O    0.000050  -0.000000   0.000000  -0.000000
     4  H   -0.000005  -0.000000  -0.000000  -0.000000
     5  C   -0.039476   0.000297   0.000701  -0.000561
     6  C    0.416805  -0.078324  -0.081167   0.003506
     7  H    0.000739   0.000049   0.002785   0.000445
     8  H    0.003245   0.002357   0.000193   0.000011
     9  N   -0.047468   0.004636   0.002014  -0.000007
    10  H   -0.001419   0.000017  -0.000063  -0.000009
    11  H   -0.001136   0.001426   0.000102  -0.000023
    12  C   -0.048671   0.571498   0.275140  -0.015100
    13  H    0.480054   0.001694   0.003000   0.002448
    14  O    0.001694   8.215853  -0.066034   0.002210
    15  O    0.003000  -0.066034   8.375937   0.249900
    16  H    0.002448   0.002210   0.249900   0.221034
 Mulliken charges:
               1
     1  C    0.872574
     2  O   -0.658245
     3  O   -0.763393
     4  H    0.538091
     5  C   -0.482193
     6  C   -0.088559
     7  H    0.265511
     8  H    0.263999
     9  N   -0.917455
    10  H    0.392987
    11  H    0.376025
    12  C    0.852000
    13  H    0.230578
    14  O   -0.655621
    15  O   -0.762466
    16  H    0.536167
 Sum of Mulliken charges =   0.00000
 Mulliken charges with hydrogens summed into heavy atoms:
               1
     1  C    0.872574
     2  O   -0.658245
     3  O   -0.225302
     5  C    0.047317
     6  C    0.142019
     9  N   -0.148443
    12  C    0.852000
    14  O   -0.655621
    15  O   -0.226300
 Electronic spatial extent (au):  <R**2>=           1407.3168
 Charge=              0.0000 electrons
 Dipole moment (field-independent basis, Debye):
    X=              1.3341    Y=             -4.4736    Z=              3.8099  Tot=              6.0256
 Quadrupole moment (field-independent basis, Debye-Ang):
   XX=            -79.1605   YY=            -45.0524   ZZ=            -50.3554
   XY=            -10.2680   XZ=            -15.4671   YZ=              3.1919
 Traceless Quadrupole moment (field-independent basis, Debye-Ang):
   XX=            -20.9711   YY=             13.1370   ZZ=              7.8340
   XY=            -10.2680   XZ=            -15.4671   YZ=              3.1919
 Octapole moment (field-independent basis, Debye-Ang**2):
  XXX=              4.0542  YYY=             -7.6374  ZZZ=             15.7062  XYY=              7.0490
  XXY=             -5.5142  XXZ=              7.9231  XZZ=              4.0684  YZZ=            -14.7149
  YYZ=              2.6216  XYZ=              0.9226
 Hexadecapole moment (field-independent basis, Debye-Ang**3):
 XXXX=          -1471.0914 YYYY=           -259.1796 ZZZZ=           -141.6938 XXXY=            -55.5667
 XXXZ=            -66.7896 YYYX=            -41.6725 YYYZ=             21.4276 ZZZX=            -40.8762
 ZZZY=             -3.6238 XXYY=           -236.4370 XXZZ=           -232.5485 YYZZ=            -73.6042
 XXYZ=              8.4900 YYXZ=            -25.2459 ZZXY=             -0.2693
 N-N= 4.617552532432D+02 E-N=-2.122211010876D+03  KE= 5.077209372301D+02
 D1PCM: PCM CHGder 1st derivatives, ID1Alg=3 FixD1E=F DoIter=F DoCFld=F I1PDM=0.
 Calling FoFJK, ICntrl=      2127 FMM=F ISym2X=0 I1Cent= 0 IOpClX= 0 NMat=1 NMatS=1 NMatT=0.
 ***** Axes restored to original set *****
 -------------------------------------------------------------------
 Center     Atomic                   Forces (Hartrees/Bohr)
 Number     Number              X              Y              Z
 -------------------------------------------------------------------
      1        6           0.009188097   -0.010803619   -0.008890805
      2        8           0.015279402    0.048375393    0.021194521
      3        8          -0.013327813   -0.009008308   -0.002020942
      4        1          -0.003691623   -0.021422568   -0.010253158
      5        6          -0.007800080    0.000134242   -0.002033428
      6        6          -0.015133009   -0.023603896   -0.000130890
      7        1           0.001182260   -0.006439452    0.006209191
      8        1           0.000659339   -0.002354441   -0.008040690
      9        7           0.003467930   -0.007298313   -0.000025829
     10        1          -0.016101873    0.016928465    0.005698635
     11        1           0.013391154    0.008702852    0.001669015
     12        6          -0.007549838    0.006805413    0.007768790
     13        1           0.002795385    0.012723781    0.006356538
     14        8           0.020711348    0.001241887   -0.054176325
     15        8           0.003467843   -0.011801914    0.013742666
     16        1          -0.006538521   -0.002179522    0.022932711
 -------------------------------------------------------------------
 Cartesian Forces:  Max     0.054176325 RMS     0.014931225

 GradGradGradGradGradGradGradGradGradGradGradGradGradGradGradGradGradGrad
 Berny optimization.
 FormGI is forming the generalized inverse of G from B-inverse, IUseBI=4.
 Internal  Forces:  Max     0.057745851 RMS     0.013771140
 Search for a local minimum.
 Step number   1 out of a maximum of   79
 All quantities printed in internal units (Hartrees-Bohrs-Radians)
 Mixed Optimization -- RFO/linear search
 Second derivative matrix not updated -- first step.
 ITU=  0
     Eigenvalues ---    0.00230   0.00355   0.00684   0.00714   0.00717
     Eigenvalues ---    0.01074   0.02275   0.02318   0.04092   0.04399
     Eigenvalues ---    0.04641   0.05070   0.05395   0.06347   0.09492
     Eigenvalues ---    0.12881   0.16000   0.16000   0.16000   0.16000
     Eigenvalues ---    0.16896   0.18251   0.22012   0.24983   0.24994
     Eigenvalues ---    0.25000   0.25000   0.28457   0.29323   0.31733
     Eigenvalues ---    0.33953   0.34078   0.34093   0.35305   0.43377
     Eigenvalues ---    0.44304   0.52036   0.52442   0.53786   0.54460
     Eigenvalues ---    0.94278   0.94311
 RFO step:  Lambda=-2.72313763D-02 EMin= 2.30000000D-03
 Linear search not attempted -- first point.
 Iteration  1 RMS(Cart)=  0.06362452 RMS(Int)=  0.00171217
 Iteration  2 RMS(Cart)=  0.00252346 RMS(Int)=  0.00029107
 Iteration  3 RMS(Cart)=  0.00000323 RMS(Int)=  0.00029106
 Iteration  4 RMS(Cart)=  0.00000000 RMS(Int)=  0.00029106
 Variable       Old X    -DE/DX   Delta X   Delta X   Delta X     New X
                                 (Linear)    (Quad)   (Total)
    R1        2.31022  -0.05348   0.00000  -0.05513  -0.05513   2.25509
    R2        2.55615  -0.03093   0.00000  -0.05409  -0.05409   2.50205
    R3        2.84634   0.00174   0.00000   0.00505   0.00505   2.85139
    R4        1.84565  -0.02331   0.00000  -0.04257  -0.04257   1.80308
    R5        2.89334  -0.00021   0.00000  -0.00066  -0.00066   2.89268
    R6        2.07410  -0.00858   0.00000  -0.02339  -0.02339   2.05071
    R7        2.07173  -0.00834   0.00000  -0.02266  -0.02266   2.04906
    R8        2.78482  -0.01274   0.00000  -0.03351  -0.03351   2.75131
    R9        2.91151  -0.01375   0.00000  -0.04410  -0.04410   2.86741
   R10        2.07198  -0.00857   0.00000  -0.02328  -0.02328   2.04870
   R11        1.93907  -0.02393   0.00000  -0.05191  -0.05191   1.88716
   R12        1.92792  -0.01570   0.00000  -0.03338  -0.03338   1.89454
   R13        2.31007  -0.05775   0.00000  -0.05951  -0.05951   2.25056
   R14        2.56227  -0.03476   0.00000  -0.06150  -0.06150   2.50076
   R15        1.84178  -0.02272   0.00000  -0.04119  -0.04119   1.80059
    A1        2.13241  -0.02344   0.00000  -0.08447  -0.08451   2.04790
    A2        2.18554   0.00604   0.00000   0.02190   0.02188   2.20742
    A3        1.96485   0.01742   0.00000   0.06291   0.06289   2.02774
    A4        1.99690  -0.01069   0.00000  -0.05709  -0.05709   1.93982
    A5        1.97497   0.01018   0.00000   0.04437   0.04428   2.01925
    A6        1.87091  -0.00553   0.00000  -0.02813  -0.02856   1.84235
    A7        1.89764  -0.00248   0.00000  -0.00726  -0.00737   1.89027
    A8        1.89984   0.00043   0.00000   0.01141   0.01160   1.91144
    A9        1.93032  -0.00356   0.00000  -0.01317  -0.01316   1.91716
   A10        1.88739   0.00058   0.00000  -0.00978  -0.00997   1.87742
   A11        1.96164  -0.00136   0.00000  -0.00824  -0.00883   1.95281
   A12        1.87269   0.00282   0.00000  -0.00884  -0.00956   1.86313
   A13        1.93466  -0.00400   0.00000  -0.02703  -0.02791   1.90676
   A14        1.92046  -0.00474   0.00000  -0.03046  -0.03051   1.88995
   A15        1.87426   0.00908   0.00000   0.09508   0.09545   1.96971
   A16        1.89974  -0.00208   0.00000  -0.02283  -0.02296   1.87678
   A17        1.90124  -0.00356   0.00000  -0.02381  -0.02418   1.87706
   A18        1.92202  -0.00537   0.00000  -0.03339  -0.03375   1.88827
   A19        1.85513   0.00254   0.00000   0.00350   0.00266   1.85778
   A20        2.18780  -0.00196   0.00000  -0.00698  -0.00698   2.18081
   A21        1.97796   0.01760   0.00000   0.06357   0.06356   2.04152
   A22        2.11640  -0.01562   0.00000  -0.05625  -0.05626   2.06013
   A23        2.01308  -0.01356   0.00000  -0.07242  -0.07242   1.94066
    D1       -3.12256   0.00036   0.00000   0.00517   0.00483  -3.11773
    D2        0.04740  -0.00050   0.00000  -0.00801  -0.00766   0.03974
    D3        0.00219   0.00148   0.00000   0.02382   0.02350   0.02569
    D4       -2.09251  -0.00149   0.00000   0.00172   0.00193  -2.09058
    D5        2.15421   0.00206   0.00000   0.03201   0.03181   2.18602
    D6        3.11439   0.00181   0.00000   0.03545   0.03535  -3.13345
    D7        1.01970  -0.00116   0.00000   0.01336   0.01377   1.03347
    D8       -1.01677   0.00240   0.00000   0.04365   0.04365  -0.97312
    D9        1.01682   0.00617   0.00000   0.09732   0.09696   1.11379
   D10        3.13025   0.00134   0.00000   0.04851   0.04819  -3.10475
   D11       -1.08075  -0.00173   0.00000   0.00031   0.00051  -1.08024
   D12        3.09491   0.00591   0.00000   0.09762   0.09759  -3.09069
   D13       -1.07486   0.00108   0.00000   0.04881   0.04882  -1.02604
   D14        0.99733  -0.00198   0.00000   0.00061   0.00114   0.99847
   D15       -1.11706   0.00477   0.00000   0.08485   0.08464  -1.03242
   D16        0.99636  -0.00006   0.00000   0.03604   0.03587   1.03223
   D17        3.06854  -0.00313   0.00000  -0.01216  -0.01181   3.05673
   D18       -1.12214  -0.00145   0.00000  -0.03938  -0.03939  -1.16154
   D19        3.13294   0.00057   0.00000  -0.01107  -0.01157   3.12137
   D20        3.07524  -0.00091   0.00000  -0.00213  -0.00221   3.07303
   D21        1.04714   0.00111   0.00000   0.02618   0.02562   1.07275
   D22        1.01005  -0.00109   0.00000  -0.01337  -0.01255   0.99750
   D23       -1.01805   0.00092   0.00000   0.01494   0.01528  -1.00278
   D24       -1.53748  -0.00129   0.00000  -0.03192  -0.03204  -1.56952
   D25        1.55560  -0.00113   0.00000  -0.02509  -0.02515   1.53045
   D26        0.60170  -0.00402   0.00000  -0.06593  -0.06587   0.53583
   D27       -2.58841  -0.00386   0.00000  -0.05910  -0.05897  -2.64738
   D28        2.65112   0.00302   0.00000   0.01815   0.01811   2.66923
   D29       -0.53899   0.00318   0.00000   0.02498   0.02501  -0.51398
   D30        0.08669  -0.00054   0.00000  -0.00946  -0.00935   0.07734
   D31       -3.10120  -0.00001   0.00000  -0.00159  -0.00171  -3.10290
         Item               Value     Threshold  Converged?
 Maximum Force            0.057746     0.000450     NO 
 RMS     Force            0.013771     0.000300     NO 
 Maximum Displacement     0.220780     0.001800     NO 
 RMS     Displacement     0.063008     0.001200     NO 
 Predicted change in Energy=-1.522553D-02
 GradGradGradGradGradGradGradGradGradGradGradGradGradGradGradGradGradGrad

                          Input orientation:                          
 ---------------------------------------------------------------------
 Center     Atomic      Atomic             Coordinates (Angstroms)
 Number     Number       Type             X           Y           Z
 ---------------------------------------------------------------------
      1          6           0       -2.432027    1.994847   -0.315605
      2          8           0       -2.404668    0.930639   -0.854839
      3          8           0       -1.270409    2.548978   -0.004740
      4          1           0       -1.395395    3.384067    0.439563
      5          6           0       -3.664585    2.792233    0.033298
      6          6           0       -5.001606    2.136386   -0.320828
      7          1           0       -3.566807    3.729588   -0.504702
      8          1           0       -3.634959    3.018624    1.093304
      9          7           0       -5.216995    0.905379    0.426136
     10          1           0       -4.536328    0.242969    0.117610
     11          1           0       -6.111675    0.534553    0.167029
     12          6           0       -6.088190    3.123111    0.064022
     13          1           0       -5.056097    1.992751   -1.394015
     14          8           0       -6.618477    3.172877    1.129233
     15          8           0       -6.433435    4.020508   -0.845227
     16          1           0       -5.976856    3.870470   -1.667976
 ---------------------------------------------------------------------
                    Distance matrix (angstroms):
                    1          2          3          4          5
     1  C    0.000000
     2  O    1.193340   0.000000
     3  O    1.324030   2.151333   0.000000
     4  H    1.890719   2.951851   0.954150   0.000000
     5  C    1.508893   2.416963   2.406803   2.380031   0.000000
     6  C    2.573479   2.912572   3.767224   3.890971   1.530739
     7  H    2.081540   3.050783   2.630066   2.392917   1.085191
     8  H    2.116645   3.109430   2.649031   2.361477   1.084317
     9  N    3.081099   3.090423   4.296815   4.555075   2.474776
    10  H    2.772153   2.441827   3.999859   4.453719   2.695513
    11  H    3.988133   3.865617   5.246453   5.517001   3.332154
    12  C    3.845078   4.384014   4.852358   4.715025   2.446280
    13  H    2.837026   2.906694   4.070738   4.324178   2.147719
    14  O    4.582759   5.169174   5.502452   5.272650   3.173553
    15  O    4.516090   5.077238   5.434028   5.238091   3.153886
    16  H    4.232338   4.697268   5.163656   5.066369   3.066516
                    6          7          8          9         10
     6  C    0.000000
     7  H    2.151917   0.000000
     8  H    2.155420   1.750353   0.000000
     9  N    1.455928   3.400844   2.722822   0.000000
    10  H    1.998435   3.672023   3.077126   0.998641   0.000000
    11  H    2.009012   4.139544   3.628046   1.002546   1.602867
    12  C    1.517367   2.654927   2.662458   2.410071   3.272059
    13  H    1.084127   2.454683   3.042829   2.126315   2.370002
    14  O    2.406504   3.506046   2.987720   2.756818   3.734045
    15  O    2.423849   2.901405   3.548682   3.577726   4.335421
    16  H    2.402700   2.679812   3.719515   3.708700   4.292109
                   11         12         13         14         15
    11  H    0.000000
    12  C    2.590713   0.000000
    13  H    2.382739   2.113954   0.000000
    14  O    2.853671   1.190947   3.193824   0.000000
    15  O    3.644184   1.323348   2.511977   2.156666   0.000000
    16  H    3.809693   1.889645   2.109190   2.953420   0.952833
                   16
    16  H    0.000000
 Stoichiometry    C4H7NO4
 Framework group  C1[X(C4H7NO4)]
 Deg. of freedom    42
 Full point group                 C1      NOp   1
 Largest Abelian subgroup         C1      NOp   1
 Largest concise Abelian subgroup C1      NOp   1
                         Standard orientation:                         
 ---------------------------------------------------------------------
 Center     Atomic      Atomic             Coordinates (Angstroms)
 Number     Number       Type             X           Y           Z
 ---------------------------------------------------------------------
      1          6           0        1.959027   -0.139039    0.041063
      2          8           0        2.326067    0.801418    0.677367
      3          8           0        2.890626   -0.938360   -0.455187
      4          1           0        2.501789   -1.646041   -0.963513
      5          6           0        0.528743   -0.527624   -0.241864
      6          6           0       -0.538812    0.410101    0.327489
      7          1           0        0.406308   -1.517886    0.184785
      8          1           0        0.405980   -0.616366   -1.315548
      9          7           0       -0.464616    1.738942   -0.262769
     10          1           0        0.396646    2.150870    0.030196
     11          1           0       -1.196065    2.298601    0.133290
     12          6           0       -1.885066   -0.193682   -0.026699
     13          1           0       -0.461767    0.424731    1.408775
     14          8           0       -2.494928    0.036237   -1.023474
     15          8           0       -2.389458   -1.075099    0.821795
     16          1           0       -1.842397   -1.158601    1.597452
 ---------------------------------------------------------------------
 Rotational constants (GHZ):           3.2282141           0.8865828           0.8023968
 Standard basis: 6-31G(d) (6D, 7F)
 There are   149 symmetry adapted cartesian basis functions of A   symmetry.
 There are   149 symmetry adapted basis functions of A   symmetry.
   149 basis functions,   280 primitive gaussians,   149 cartesian basis functions
    35 alpha electrons       35 beta electrons
       nuclear repulsion energy       466.2767691345 Hartrees.
 NAtoms=   16 NActive=   16 NUniq=   16 SFac= 1.00D+00 NAtFMM=   60 NAOKFM=F Big=F
 Integral buffers will be    131072 words long.
 Raffenetti 1 integral format.
 Two-electron integral symmetry is turned on.
 ------------------------------------------------------------------------------
 Polarizable Continuum Model (PCM)
 =================================
 Model                : PCM.
 Atomic radii         : SMD-Coulomb.
 Polarization charges : Total charges.
 Charge compensation  : None.
 Solution method      : On-the-fly selection.
 Cavity type          : VdW (van der Waals Surface) (Alpha=1.000).
 Cavity algorithm     : GePol (No added spheres)
                        Default sphere list used, NSphG=   16.
                        Lebedev-Laikov grids with approx.  5.0 points / Ang**2.
                        Smoothing algorithm: York/Karplus (Gamma=1.0000).
                        Polarization charges: spherical gaussians, with
                                              point-specific exponents (IZeta= 3).
                        Self-potential: point-specific (ISelfS= 7).
                        Self-field    : sphere-specific E.n sum rule (ISelfD= 2).
 1st derivatives      : Analytical E(r).r(x)/FMM algorithm (CHGder, D1EAlg=3).
                        Cavity 1st derivative terms included.
 Solvent              : Water, Eps=  78.355300 Eps(inf)=   1.777849
 ------------------------------------------------------------------------------
 Spheres list:
 ISph  on   Nord     Re0    Alpha      Xe            Ye            Ze
    1   C      1    1.8500  1.000      1.959027     -0.139039      0.041063
    2   O      2    1.5200  1.000      2.326067      0.801418      0.677367
    3   O      3    1.5200  1.000      2.890626     -0.938360     -0.455187
    4   H      4    1.2000  1.000      2.501789     -1.646041     -0.963513
    5   C      5    1.8500  1.000      0.528743     -0.527624     -0.241864
    6   C      6    1.8500  1.000     -0.538812      0.410101      0.327489
    7   H      7    1.2000  1.000      0.406308     -1.517886      0.184785
    8   H      8    1.2000  1.000      0.405980     -0.616366     -1.315548
    9   N      9    1.8900  1.000     -0.464616      1.738942     -0.262769
   10   H     10    1.2000  1.000      0.396646      2.150870      0.030196
   11   H     11    1.2000  1.000     -1.196065      2.298601      0.133290
   12   C     12    1.8500  1.000     -1.885066     -0.193682     -0.026699
   13   H     13    1.2000  1.000     -0.461767      0.424731      1.408775
   14   O     14    1.5200  1.000     -2.494928      0.036237     -1.023474
   15   O     15    1.5200  1.000     -2.389458     -1.075099      0.821795
   16   H     16    1.2000  1.000     -1.842397     -1.158601      1.597452
 ------------------------------------------------------------------------------
 ------------------------------------------------------------------------------
 Atomic radii for non-electrostatic terms: SMD-CDS.
 ------------------------------------------------------------------------------
 Nuclear repulsion after PCM non-electrostatic terms =      466.2850277244 Hartrees.
 One-electron integrals computed using PRISM.
 NBasis=   149 RedAO= T EigKep=  2.23D-03  NBF=   149
 NBsUse=   149 1.00D-06 EigRej= -1.00D+00 NBFU=   149
 Initial guess from the checkpoint file:  "ASH.chk"
 B after Tr=     0.000000   -0.000000   -0.000000
         Rot=    0.999807   -0.019040   -0.001136   -0.004606 Ang=  -2.25 deg.
 ExpMin= 1.61D-01 ExpMax= 5.48D+03 ExpMxC= 8.25D+02 IAcc=3 IRadAn=         5 AccDes= 0.00D+00
 Harris functional with IExCor=  205 and IRadAn=       5 diagonalized for initial guess.
 HarFok:  IExCor=  205 AccDes= 0.00D+00 IRadAn=         5 IDoV= 1 UseB2=F ITyADJ=14
 ICtDFT=  3500011 ScaDFX=  1.000000  1.000000  1.000000  1.000000
 FoFCou: FMM=F IPFlag=           0 FMFlag=      100000 FMFlg1=           0
         NFxFlg=           0 DoJE=T BraDBF=F KetDBF=T FulRan=T
         wScrn=  0.000000 ICntrl=       500 IOpCl=  0 I1Cent=   200000004 NGrid=           0
         NMat0=    1 NMatS0=      1 NMatT0=    0 NMatD0=    1 NMtDS0=    0 NMtDT0=    0
 Petite list used in FoFCou.
 Keep R1 ints in memory in canonical form, NReq=64134755.
 Requested convergence on RMS density matrix=1.00D-08 within 128 cycles.
 Requested convergence on MAX density matrix=1.00D-06.
 Requested convergence on             energy=1.00D-06.
 No special actions if energy rises.
 Inv3:  Mode=1 IEnd=     4120752.
 Iteration    1 A*A^-1 deviation from unit magnitude is 5.55D-15 for    232.
 Iteration    1 A*A^-1 deviation from orthogonality  is 3.55D-15 for   1121    260.
 Iteration    1 A^-1*A deviation from unit magnitude is 4.77D-15 for    587.
 Iteration    1 A^-1*A deviation from orthogonality  is 3.38D-15 for    983    450.
 Error on total polarization charges =  0.02776
 SCF Done:  E(RHF) =  -509.503167811     A.U. after   13 cycles
            NFock= 13  Conv=0.33D-08     -V/T= 2.0020
 SMD-CDS (non-electrostatic) energy       (kcal/mol) =       5.18
 (included in total energy above)
 D1PCM: PCM CHGder 1st derivatives, ID1Alg=3 FixD1E=F DoIter=F DoCFld=F I1PDM=0.
 Calling FoFJK, ICntrl=      2127 FMM=F ISym2X=0 I1Cent= 0 IOpClX= 0 NMat=1 NMatS=1 NMatT=0.
 ***** Axes restored to original set *****
 -------------------------------------------------------------------
 Center     Atomic                   Forces (Hartrees/Bohr)
 Number     Number              X              Y              Z
 -------------------------------------------------------------------
      1        6           0.004441517   -0.002710613   -0.000761882
      2        8          -0.008945347   -0.007361522   -0.004691478
      3        8          -0.004767271    0.008311165    0.005086848
      4        1           0.003964048    0.001137836    0.000498987
      5        6           0.001355514    0.001094351   -0.001227371
      6        6          -0.000719813   -0.006116699    0.003081719
      7        1          -0.000535616    0.001818313    0.001240610
      8        1           0.001148558   -0.000050239    0.000370797
      9        7           0.002332991    0.005846612   -0.001844456
     10        1           0.001866854   -0.003537956   -0.000290144
     11        1          -0.000749886   -0.001779729    0.000640302
     12        6          -0.002115531    0.008805588   -0.001899140
     13        1           0.001529889   -0.000921704   -0.001025172
     14        8          -0.001721203   -0.004780134    0.008864830
     15        8           0.004618675   -0.002845150   -0.005376005
     16        1          -0.001703379    0.003089880   -0.002668446
 -------------------------------------------------------------------
 Cartesian Forces:  Max     0.008945347 RMS     0.003853529

 GradGradGradGradGradGradGradGradGradGradGradGradGradGradGradGradGradGrad
 Berny optimization.
 Using GEDIIS/GDIIS optimizer.
 FormGI is forming the generalized inverse of G from B-inverse, IUseBI=4.
 Internal  Forces:  Max     0.012741471 RMS     0.003559226
 Search for a local minimum.
 Step number   2 out of a maximum of   79
 All quantities printed in internal units (Hartrees-Bohrs-Radians)
 Mixed Optimization -- RFO/linear search
 Update second derivatives using D2CorX and points    1    2
 DE= -1.12D-02 DEPred=-1.52D-02 R= 7.35D-01
 TightC=F SS=  1.41D+00  RLast= 3.46D-01 DXNew= 5.0454D-01 1.0375D+00
 Trust test= 7.35D-01 RLast= 3.46D-01 DXMaxT set to 5.05D-01
 ITU=  1  0
 Use linear search instead of GDIIS.
     Eigenvalues ---    0.00231   0.00361   0.00685   0.00691   0.00717
     Eigenvalues ---    0.01035   0.02276   0.02318   0.03831   0.04746
     Eigenvalues ---    0.04899   0.05255   0.05324   0.06285   0.09904
     Eigenvalues ---    0.13149   0.15995   0.16000   0.16000   0.16454
     Eigenvalues ---    0.16966   0.17859   0.22318   0.24598   0.24992
     Eigenvalues ---    0.25000   0.27851   0.29271   0.30047   0.31867
     Eigenvalues ---    0.33990   0.34084   0.34342   0.35147   0.43776
     Eigenvalues ---    0.44408   0.51821   0.52368   0.54061   0.55329
     Eigenvalues ---    0.94283   0.95743
 RFO step:  Lambda=-2.68187762D-03 EMin= 2.30686434D-03
 Quartic linear search produced a step of -0.16134.
 Iteration  1 RMS(Cart)=  0.08601587 RMS(Int)=  0.00309019
 Iteration  2 RMS(Cart)=  0.00432356 RMS(Int)=  0.00023121
 Iteration  3 RMS(Cart)=  0.00001041 RMS(Int)=  0.00023114
 Iteration  4 RMS(Cart)=  0.00000000 RMS(Int)=  0.00023114
 Variable       Old X    -DE/DX   Delta X   Delta X   Delta X     New X
                                 (Linear)    (Quad)   (Total)
    R1        2.25509   0.00849   0.00889  -0.00304   0.00585   2.26094
    R2        2.50205   0.00455   0.00873  -0.00367   0.00506   2.50711
    R3        2.85139  -0.00401  -0.00081  -0.00941  -0.01023   2.84117
    R4        1.80308   0.00070   0.00687  -0.00725  -0.00038   1.80270
    R5        2.89268  -0.00185   0.00011  -0.00535  -0.00525   2.88743
    R6        2.05071   0.00090   0.00377  -0.00256   0.00121   2.05193
    R7        2.04906   0.00039   0.00366  -0.00367  -0.00001   2.04905
    R8        2.75131  -0.00173   0.00541  -0.01085  -0.00544   2.74587
    R9        2.86741   0.00313   0.00711  -0.00005   0.00707   2.87448
   R10        2.04870   0.00106   0.00376  -0.00215   0.00161   2.05031
   R11        1.88716   0.00368   0.00838  -0.00331   0.00507   1.89222
   R12        1.89454   0.00117   0.00539  -0.00444   0.00095   1.89549
   R13        2.25056   0.00847   0.00960  -0.00389   0.00571   2.25627
   R14        2.50076   0.00498   0.00992  -0.00438   0.00554   2.50630
   R15        1.80059   0.00105   0.00665  -0.00643   0.00021   1.80081
    A1        2.04790   0.01274   0.01363   0.02431   0.03790   2.08580
    A2        2.20742  -0.00795  -0.00353  -0.02152  -0.02510   2.18233
    A3        2.02774  -0.00479  -0.01015  -0.00248  -0.01268   2.01506
    A4        1.93982   0.00738   0.00921   0.02493   0.03414   1.97396
    A5        2.01925  -0.00956  -0.00714  -0.02745  -0.03458   1.98467
    A6        1.84235   0.00352   0.00461   0.01182   0.01670   1.85905
    A7        1.89027   0.00243   0.00119  -0.00144  -0.00040   1.88986
    A8        1.91144   0.00283  -0.00187   0.01952   0.01775   1.92918
    A9        1.91716   0.00294   0.00212   0.00401   0.00587   1.92303
   A10        1.87742  -0.00180   0.00161  -0.00527  -0.00373   1.87369
   A11        1.95281  -0.00294   0.00142  -0.01827  -0.01672   1.93609
   A12        1.86313  -0.00016   0.00154  -0.00459  -0.00284   1.86029
   A13        1.90676   0.00031   0.00450  -0.01558  -0.01090   1.89585
   A14        1.88995   0.00302   0.00492   0.01141   0.01626   1.90621
   A15        1.96971   0.00034  -0.01540   0.02852   0.01285   1.98256
   A16        1.87678  -0.00048   0.00370  -0.00229   0.00125   1.87804
   A17        1.87706   0.00227   0.00390   0.00773   0.01164   1.88870
   A18        1.88827   0.00249   0.00545   0.00667   0.01212   1.90039
   A19        1.85778  -0.00147  -0.00043  -0.00352  -0.00393   1.85385
   A20        2.18081  -0.00487   0.00113  -0.01675  -0.01637   2.16444
   A21        2.04152  -0.00251  -0.01025   0.00591  -0.00510   2.03643
   A22        2.06013   0.00740   0.00908   0.01343   0.02174   2.08187
   A23        1.94066   0.00774   0.01168   0.02335   0.03503   1.97569
    D1       -3.11773  -0.00008  -0.00078   0.00593   0.00546  -3.11227
    D2        0.03974  -0.00010   0.00124  -0.01308  -0.01215   0.02759
    D3        0.02569   0.00074  -0.00379   0.05920   0.05543   0.08112
    D4       -2.09058   0.00048  -0.00031   0.04272   0.04250  -2.04808
    D5        2.18602  -0.00031  -0.00513   0.04360   0.03865   2.22466
    D6       -3.13345   0.00098  -0.00570   0.08069   0.07482  -3.05863
    D7        1.03347   0.00072  -0.00222   0.06421   0.06188   1.09535
    D8       -0.97312  -0.00007  -0.00704   0.06509   0.05803  -0.91509
    D9        1.11379  -0.00122  -0.01564   0.11329   0.09780   1.21159
   D10       -3.10475   0.00070  -0.00778   0.11411   0.10646  -2.99829
   D11       -1.08024   0.00022  -0.00008   0.10110   0.10099  -0.97925
   D12       -3.09069  -0.00098  -0.01575   0.12474   0.10897  -2.98172
   D13       -1.02604   0.00094  -0.00788   0.12556   0.11763  -0.90841
   D14        0.99847   0.00046  -0.00018   0.11255   0.11217   1.11063
   D15       -1.03242   0.00026  -0.01366   0.13235   0.11878  -0.91365
   D16        1.03223   0.00218  -0.00579   0.13317   0.12744   1.15967
   D17        3.05673   0.00170   0.00191   0.12016   0.12197  -3.10448
   D18       -1.16154   0.00085   0.00636  -0.00174   0.00466  -1.15688
   D19        3.12137   0.00018   0.00187  -0.00488  -0.00296   3.11841
   D20        3.07303   0.00087   0.00036   0.00735   0.00787   3.08090
   D21        1.07275   0.00019  -0.00413   0.00421   0.00025   1.07300
   D22        0.99750  -0.00074   0.00202  -0.01478  -0.01298   0.98452
   D23       -1.00278  -0.00142  -0.00246  -0.01793  -0.02060  -1.02338
   D24       -1.56952  -0.00001   0.00517  -0.11516  -0.10976  -1.67928
   D25        1.53045   0.00085   0.00406  -0.03964  -0.03576   1.49469
   D26        0.53583  -0.00195   0.01063  -0.13318  -0.12238   0.41345
   D27       -2.64738  -0.00109   0.00951  -0.05766  -0.04838  -2.69576
   D28        2.66923  -0.00006  -0.00292  -0.09358  -0.09630   2.57293
   D29       -0.51398   0.00080  -0.00403  -0.01806  -0.02230  -0.53628
   D30        0.07734  -0.00007   0.00151  -0.03090  -0.03002   0.04732
   D31       -3.10290   0.00045   0.00028   0.03850   0.03940  -3.06350
         Item               Value     Threshold  Converged?
 Maximum Force            0.012741     0.000450     NO 
 RMS     Force            0.003559     0.000300     NO 
 Maximum Displacement     0.353870     0.001800     NO 
 RMS     Displacement     0.086698     0.001200     NO 
 Predicted change in Energy=-1.906832D-03
 GradGradGradGradGradGradGradGradGradGradGradGradGradGradGradGradGradGrad

                          Input orientation:                          
 ---------------------------------------------------------------------
 Center     Atomic      Atomic             Coordinates (Angstroms)
 Number     Number       Type             X           Y           Z
 ---------------------------------------------------------------------
      1          6           0       -2.464427    2.026982   -0.396588
      2          8           0       -2.494711    1.020074   -1.042099
      3          8           0       -1.294388    2.529811   -0.024667
      4          1           0       -1.377507    3.317831    0.506491
      5          6           0       -3.672469    2.802381    0.050456
      6          6           0       -4.998787    2.129261   -0.299493
      7          1           0       -3.604635    3.778275   -0.420779
      8          1           0       -3.601522    2.954830    1.121649
      9          7           0       -5.194704    0.925987    0.491141
     10          1           0       -4.500794    0.256924    0.220053
     11          1           0       -6.081432    0.521994    0.253217
     12          6           0       -6.094749    3.130466    0.032504
     13          1           0       -5.026995    1.954836   -1.369986
     14          8           0       -6.706071    3.135916    1.058083
     15          8           0       -6.394207    4.018546   -0.905928
     16          1           0       -5.901112    3.893866   -1.711794
 ---------------------------------------------------------------------
                    Distance matrix (angstroms):
                    1          2          3          4          5
     1  C    0.000000
     2  O    1.196439   0.000000
     3  O    1.326708   2.180653   0.000000
     4  H    1.913959   2.987635   0.953946   0.000000
     5  C    1.503482   2.399460   2.394830   2.395936   0.000000
     6  C    2.538280   2.837631   3.736113   3.895635   1.527964
     7  H    2.089900   3.037373   2.655712   2.456000   1.085833
     8  H    2.111617   3.106463   2.611044   2.335901   1.084310
     9  N    3.074844   3.106386   4.248620   4.504680   2.456065
    10  H    2.767696   2.489938   3.937885   4.382479   2.682208
    11  H    3.971141   3.845840   5.198494   5.477934   3.323308
    12  C    3.818512   4.309153   4.838132   4.744696   2.444463
    13  H    2.742164   2.719145   4.009094   4.324082   2.137926
    14  O    4.619236   5.159758   5.552119   5.360125   3.213922
    15  O    4.434966   4.920919   5.385268   5.258632   3.130748
    16  H    4.126237   4.506744   5.092048   5.071056   3.043635
                    6          7          8          9         10
     6  C    0.000000
     7  H    2.162780   0.000000
     8  H    2.157210   1.748472   0.000000
     9  N    1.453050   3.390496   2.655555   0.000000
    10  H    2.005884   3.689672   2.983331   1.001322   0.000000
    11  H    2.015172   4.146343   3.580896   1.003048   1.603053
    12  C    1.521108   2.612622   2.726401   2.424904   3.291370
    13  H    1.084976   2.499806   3.039770   2.133178   2.384956
    14  O    2.402330   3.495507   3.110475   2.736685   3.722115
    15  O    2.425770   2.841622   3.611322   3.599241   4.359203
    16  H    2.433643   2.637023   3.768064   3.763010   4.349745
                   11         12         13         14         15
    11  H    0.000000
    12  C    2.617827   0.000000
    13  H    2.408248   2.118769   0.000000
    14  O    2.805455   1.193967   3.179586   0.000000
    15  O    3.696935   1.326279   2.518635   2.175692   0.000000
    16  H    3.906829   1.913858   2.154241   2.982393   0.952947
                   16
    16  H    0.000000
 Stoichiometry    C4H7NO4
 Framework group  C1[X(C4H7NO4)]
 Deg. of freedom    42
 Full point group                 C1      NOp   1
 Largest Abelian subgroup         C1      NOp   1
 Largest concise Abelian subgroup C1      NOp   1
                         Standard orientation:                         
 ---------------------------------------------------------------------
 Center     Atomic      Atomic             Coordinates (Angstroms)
 Number     Number       Type             X           Y           Z
 ---------------------------------------------------------------------
      1          6           0        1.944522   -0.144844    0.059948
      2          8           0        2.245826    0.700847    0.850826
      3          8           0        2.896825   -0.843644   -0.544163
      4          1           0        2.556145   -1.474267   -1.173660
      5          6           0        0.536467   -0.500795   -0.328816
      6          6           0       -0.522173    0.402688    0.301797
      7          1           0        0.384661   -1.532946   -0.027733
      8          1           0        0.462790   -0.465096   -1.410031
      9          7           0       -0.462401    1.741887   -0.258850
     10          1           0        0.407620    2.156430    0.012930
     11          1           0       -1.182118    2.301411    0.159533
     12          6           0       -1.872366   -0.217038   -0.024832
     13          1           0       -0.401698    0.377449    1.379768
     14          8           0       -2.556616    0.118778   -0.943845
     15          8           0       -2.308852   -1.161288    0.797901
     16          1           0       -1.726747   -1.313803    1.536819
 ---------------------------------------------------------------------
 Rotational constants (GHZ):           3.2052170           0.8938194           0.8155396
 Standard basis: 6-31G(d) (6D, 7F)
 There are   149 symmetry adapted cartesian basis functions of A   symmetry.
 There are   149 symmetry adapted basis functions of A   symmetry.
   149 basis functions,   280 primitive gaussians,   149 cartesian basis functions
    35 alpha electrons       35 beta electrons
       nuclear repulsion energy       466.8774069170 Hartrees.
 NAtoms=   16 NActive=   16 NUniq=   16 SFac= 1.00D+00 NAtFMM=   60 NAOKFM=F Big=F
 Integral buffers will be    131072 words long.
 Raffenetti 1 integral format.
 Two-electron integral symmetry is turned on.
 ------------------------------------------------------------------------------
 Polarizable Continuum Model (PCM)
 =================================
 Model                : PCM.
 Atomic radii         : SMD-Coulomb.
 Polarization charges : Total charges.
 Charge compensation  : None.
 Solution method      : On-the-fly selection.
 Cavity type          : VdW (van der Waals Surface) (Alpha=1.000).
 Cavity algorithm     : GePol (No added spheres)
                        Default sphere list used, NSphG=   16.
                        Lebedev-Laikov grids with approx.  5.0 points / Ang**2.
                        Smoothing algorithm: York/Karplus (Gamma=1.0000).
                        Polarization charges: spherical gaussians, with
                                              point-specific exponents (IZeta= 3).
                        Self-potential: point-specific (ISelfS= 7).
                        Self-field    : sphere-specific E.n sum rule (ISelfD= 2).
 1st derivatives      : Analytical E(r).r(x)/FMM algorithm (CHGder, D1EAlg=3).
                        Cavity 1st derivative terms included.
 Solvent              : Water, Eps=  78.355300 Eps(inf)=   1.777849
 ------------------------------------------------------------------------------
 Spheres list:
 ISph  on   Nord     Re0    Alpha      Xe            Ye            Ze
    1   C      1    1.8500  1.000      1.944522     -0.144844      0.059948
    2   O      2    1.5200  1.000      2.245826      0.700847      0.850826
    3   O      3    1.5200  1.000      2.896825     -0.843644     -0.544163
    4   H      4    1.2000  1.000      2.556145     -1.474267     -1.173660
    5   C      5    1.8500  1.000      0.536467     -0.500795     -0.328816
    6   C      6    1.8500  1.000     -0.522173      0.402688      0.301797
    7   H      7    1.2000  1.000      0.384661     -1.532946     -0.027733
    8   H      8    1.2000  1.000      0.462790     -0.465096     -1.410031
    9   N      9    1.8900  1.000     -0.462401      1.741887     -0.258850
   10   H     10    1.2000  1.000      0.407620      2.156430      0.012930
   11   H     11    1.2000  1.000     -1.182118      2.301411      0.159533
   12   C     12    1.8500  1.000     -1.872366     -0.217038     -0.024832
   13   H     13    1.2000  1.000     -0.401698      0.377449      1.379768
   14   O     14    1.5200  1.000     -2.556616      0.118778     -0.943845
   15   O     15    1.5200  1.000     -2.308852     -1.161288      0.797901
   16   H     16    1.2000  1.000     -1.726747     -1.313803      1.536819
 ------------------------------------------------------------------------------
 ------------------------------------------------------------------------------
 Atomic radii for non-electrostatic terms: SMD-CDS.
 ------------------------------------------------------------------------------
 Nuclear repulsion after PCM non-electrostatic terms =      466.8857123755 Hartrees.
 One-electron integrals computed using PRISM.
 NBasis=   149 RedAO= T EigKep=  2.26D-03  NBF=   149
 NBsUse=   149 1.00D-06 EigRej= -1.00D+00 NBFU=   149
 Initial guess from the checkpoint file:  "ASH.chk"
 B after Tr=    -0.000000   -0.000000   -0.000000
         Rot=    0.999450   -0.032818   -0.002151   -0.004271 Ang=  -3.80 deg.
 ExpMin= 1.61D-01 ExpMax= 5.48D+03 ExpMxC= 8.25D+02 IAcc=3 IRadAn=         5 AccDes= 0.00D+00
 Harris functional with IExCor=  205 and IRadAn=       5 diagonalized for initial guess.
 HarFok:  IExCor=  205 AccDes= 0.00D+00 IRadAn=         5 IDoV= 1 UseB2=F ITyADJ=14
 ICtDFT=  3500011 ScaDFX=  1.000000  1.000000  1.000000  1.000000
 FoFCou: FMM=F IPFlag=           0 FMFlag=      100000 FMFlg1=           0
         NFxFlg=           0 DoJE=T BraDBF=F KetDBF=T FulRan=T
         wScrn=  0.000000 ICntrl=       500 IOpCl=  0 I1Cent=   200000004 NGrid=           0
         NMat0=    1 NMatS0=      1 NMatT0=    0 NMatD0=    1 NMtDS0=    0 NMtDT0=    0
 Petite list used in FoFCou.
 Keep R1 ints in memory in canonical form, NReq=64134755.
 Requested convergence on RMS density matrix=1.00D-08 within 128 cycles.
 Requested convergence on MAX density matrix=1.00D-06.
 Requested convergence on             energy=1.00D-06.
 No special actions if energy rises.
 Inv3:  Mode=1 IEnd=     4163052.
 Iteration    1 A*A^-1 deviation from unit magnitude is 4.88D-15 for     96.
 Iteration    1 A*A^-1 deviation from orthogonality  is 2.71D-15 for    463     94.
 Iteration    1 A^-1*A deviation from unit magnitude is 4.66D-15 for     31.
 Iteration    1 A^-1*A deviation from orthogonality  is 5.39D-14 for    747    746.
 Error on total polarization charges =  0.02768
 SCF Done:  E(RHF) =  -509.504605038     A.U. after   13 cycles
            NFock= 13  Conv=0.28D-08     -V/T= 2.0021
 SMD-CDS (non-electrostatic) energy       (kcal/mol) =       5.21
 (included in total energy above)
 D1PCM: PCM CHGder 1st derivatives, ID1Alg=3 FixD1E=F DoIter=F DoCFld=F I1PDM=0.
 Calling FoFJK, ICntrl=      2127 FMM=F ISym2X=0 I1Cent= 0 IOpClX= 0 NMat=1 NMatS=1 NMatT=0.
 ***** Axes restored to original set *****
 -------------------------------------------------------------------
 Center     Atomic                   Forces (Hartrees/Bohr)
 Number     Number              X              Y              Z
 -------------------------------------------------------------------
      1        6           0.001857839    0.000522844    0.004008398
      2        8           0.001093301    0.000938348   -0.000986401
      3        8          -0.000375063   -0.002952959   -0.002318567
      4        1          -0.001028543    0.000298814   -0.000589395
      5        6           0.000988970    0.000547220   -0.000910744
      6        6           0.000502900    0.001779086    0.004251617
      7        1           0.000204128    0.000580193    0.000185370
      8        1          -0.000252393    0.000119324    0.000176673
      9        7           0.000589518    0.002680374   -0.002052848
     10        1           0.000707251   -0.000804869   -0.000302678
     11        1          -0.000468130   -0.000628107    0.000334743
     12        6          -0.007351550   -0.006708725   -0.006056619
     13        1          -0.000371237   -0.000928917   -0.000264170
     14        8           0.000976242    0.003324120    0.001616326
     15        8           0.001400000    0.000992000    0.003204344
     16        1           0.001526769    0.000241254   -0.000296051
 -------------------------------------------------------------------
 Cartesian Forces:  Max     0.007351550 RMS     0.002252388

 GradGradGradGradGradGradGradGradGradGradGradGradGradGradGradGradGradGrad
 Berny optimization.
 Using GEDIIS/GDIIS optimizer.
 FormGI is forming the generalized inverse of G from B-inverse, IUseBI=4.
 Internal  Forces:  Max     0.003068171 RMS     0.001253310
 Search for a local minimum.
 Step number   3 out of a maximum of   79
 All quantities printed in internal units (Hartrees-Bohrs-Radians)
 Mixed Optimization -- RFO/linear search
 Update second derivatives using D2CorX and points    2    3
 DE= -1.44D-03 DEPred=-1.91D-03 R= 7.54D-01
 TightC=F SS=  1.41D+00  RLast= 4.32D-01 DXNew= 8.4853D-01 1.2947D+00
 Trust test= 7.54D-01 RLast= 4.32D-01 DXMaxT set to 8.49D-01
 ITU=  1  1  0
 Use linear search instead of GDIIS.
     Eigenvalues ---    0.00192   0.00333   0.00652   0.00717   0.00987
     Eigenvalues ---    0.01278   0.02299   0.02318   0.04018   0.04624
     Eigenvalues ---    0.04981   0.05290   0.05343   0.06242   0.09640
     Eigenvalues ---    0.12947   0.15845   0.16000   0.16001   0.16320
     Eigenvalues ---    0.16664   0.17933   0.21266   0.24622   0.24996
     Eigenvalues ---    0.25013   0.28269   0.28816   0.30476   0.32657
     Eigenvalues ---    0.33967   0.34081   0.34167   0.36078   0.43441
     Eigenvalues ---    0.44269   0.51762   0.52313   0.54032   0.57632
     Eigenvalues ---    0.94009   0.94829
 RFO step:  Lambda=-2.70349396D-03 EMin= 1.92204156D-03
 Quartic linear search produced a step of -0.12709.
 Iteration  1 RMS(Cart)=  0.08570676 RMS(Int)=  0.01330319
 Iteration  2 RMS(Cart)=  0.02176164 RMS(Int)=  0.00212384
 Iteration  3 RMS(Cart)=  0.00048493 RMS(Int)=  0.00209504
 Iteration  4 RMS(Cart)=  0.00000083 RMS(Int)=  0.00209504
 Variable       Old X    -DE/DX   Delta X   Delta X   Delta X     New X
                                 (Linear)    (Quad)   (Total)
    R1        2.26094  -0.00028  -0.00074   0.00585   0.00511   2.26605
    R2        2.50711  -0.00307  -0.00064   0.00089   0.00024   2.50736
    R3        2.84117   0.00184   0.00130  -0.00500  -0.00370   2.83747
    R4        1.80270  -0.00001   0.00005   0.00012   0.00017   1.80287
    R5        2.88743   0.00207   0.00067   0.00070   0.00136   2.88880
    R6        2.05193   0.00046  -0.00015   0.00248   0.00233   2.05426
    R7        2.04905   0.00017   0.00000   0.00065   0.00065   2.04970
    R8        2.74587  -0.00222   0.00069  -0.00963  -0.00894   2.73692
    R9        2.87448   0.00077  -0.00090   0.00926   0.00836   2.88283
   R10        2.05031   0.00041  -0.00020   0.00273   0.00252   2.05283
   R11        1.89222   0.00112  -0.00064   0.00739   0.00674   1.89897
   R12        1.89549   0.00057  -0.00012   0.00230   0.00218   1.89766
   R13        2.25627   0.00093  -0.00073   0.00678   0.00606   2.26233
   R14        2.50630  -0.00194  -0.00070   0.00303   0.00232   2.50863
   R15        1.80081   0.00097  -0.00003   0.00213   0.00211   1.80291
    A1        2.08580  -0.00241  -0.00482   0.02871   0.02331   2.10910
    A2        2.18233  -0.00008   0.00319  -0.02386  -0.02120   2.16112
    A3        2.01506   0.00249   0.00161  -0.00476  -0.00371   2.01135
    A4        1.97396  -0.00188  -0.00434   0.02318   0.01884   1.99280
    A5        1.98467  -0.00146   0.00440  -0.03793  -0.03351   1.95116
    A6        1.85905   0.00033  -0.00212   0.01593   0.01393   1.87298
    A7        1.88986   0.00073   0.00005   0.00358   0.00354   1.89340
    A8        1.92918   0.00056  -0.00226   0.01797   0.01578   1.94497
    A9        1.92303   0.00023  -0.00075   0.00649   0.00562   1.92865
   A10        1.87369  -0.00033   0.00047  -0.00450  -0.00412   1.86958
   A11        1.93609  -0.00098   0.00212  -0.01582  -0.01394   1.92215
   A12        1.86029   0.00213   0.00036   0.01302   0.01344   1.87373
   A13        1.89585  -0.00034   0.00139  -0.01513  -0.01382   1.88204
   A14        1.90621   0.00028  -0.00207   0.02247   0.02046   1.92667
   A15        1.98256  -0.00004  -0.00163   0.00139  -0.00043   1.98213
   A16        1.87804  -0.00090  -0.00016  -0.00479  -0.00489   1.87315
   A17        1.88870  -0.00003  -0.00148   0.01156   0.01001   1.89871
   A18        1.90039   0.00107  -0.00154   0.01750   0.01590   1.91629
   A19        1.85385  -0.00029   0.00050  -0.00378  -0.00342   1.85044
   A20        2.16444   0.00236   0.00208  -0.00571  -0.01331   2.15113
   A21        2.03643  -0.00118   0.00065  -0.00709  -0.01628   2.02015
   A22        2.08187  -0.00108  -0.00276   0.01982   0.00687   2.08874
   A23        1.97569  -0.00073  -0.00445   0.02985   0.02540   2.00109
    D1       -3.11227  -0.00115  -0.00069  -0.04850  -0.04986   3.12105
    D2        0.02759   0.00002   0.00154   0.00832   0.01053   0.03812
    D3        0.08112   0.00057  -0.00705   0.06708   0.05977   0.14089
    D4       -2.04808   0.00055  -0.00540   0.05695   0.05136  -1.99673
    D5        2.22466   0.00042  -0.00491   0.05240   0.04728   2.27194
    D6       -3.05863  -0.00067  -0.00951   0.00663  -0.00270  -3.06132
    D7        1.09535  -0.00069  -0.00786  -0.00350  -0.01111   1.08424
    D8       -0.91509  -0.00083  -0.00738  -0.00805  -0.01519  -0.93027
    D9        1.21159  -0.00051  -0.01243   0.04934   0.03704   1.24863
   D10       -2.99829   0.00057  -0.01353   0.07550   0.06200  -2.93629
   D11       -0.97925   0.00045  -0.01284   0.06920   0.05633  -0.92292
   D12       -2.98172  -0.00068  -0.01385   0.05691   0.04310  -2.93862
   D13       -0.90841   0.00039  -0.01495   0.08307   0.06806  -0.84035
   D14        1.11063   0.00028  -0.01426   0.07677   0.06239   1.17302
   D15       -0.91365  -0.00060  -0.01510   0.06658   0.05157  -0.86207
   D16        1.15967   0.00047  -0.01620   0.09273   0.07653   1.23620
   D17       -3.10448   0.00036  -0.01550   0.08643   0.07086  -3.03362
   D18       -1.15688   0.00119  -0.00059   0.01598   0.01539  -1.14149
   D19        3.11841   0.00099   0.00038   0.00515   0.00545   3.12386
   D20        3.08090  -0.00101  -0.00100  -0.00430  -0.00522   3.07569
   D21        1.07300  -0.00120  -0.00003  -0.01514  -0.01516   1.05785
   D22        0.98452  -0.00004   0.00165  -0.01500  -0.01333   0.97119
   D23       -1.02338  -0.00023   0.00262  -0.02584  -0.02327  -1.04665
   D24       -1.67928   0.00125   0.01395  -0.01262   0.00032  -1.67896
   D25        1.49469  -0.00251   0.00454  -0.26831  -0.26296   1.23174
   D26        0.41345   0.00146   0.01555  -0.01177   0.00298   0.41644
   D27       -2.69576  -0.00230   0.00615  -0.26746  -0.26029  -2.95605
   D28        2.57293   0.00101   0.01224   0.00071   0.01203   2.58496
   D29       -0.53628  -0.00274   0.00283  -0.25498  -0.25125  -0.78753
   D30        0.04732   0.00089   0.00381   0.09638   0.10096   0.14828
   D31       -3.06350  -0.00275  -0.00501  -0.14614  -0.15191   3.06778
         Item               Value     Threshold  Converged?
[...]
 ! A14   A(9,6,12)             109.5666         -DE/DX =    0.0                 !
 ! A15   A(9,6,13)             113.0964         -DE/DX =    0.0                 !
 ! A16   A(12,6,13)            106.4184         -DE/DX =    0.0                 !
 ! A17   A(6,9,10)             108.2601         -DE/DX =    0.0                 !
 ! A18   A(6,9,11)             109.2898         -DE/DX =    0.0                 !
 ! A19   A(10,9,11)            106.2824         -DE/DX =    0.0                 !
 ! A20   A(6,12,14)            124.5007         -DE/DX =    0.0                 !
 ! A21   A(6,12,15)            116.3564         -DE/DX =    0.0                 !
 ! A22   A(14,12,15)           119.1427         -DE/DX =    0.0                 !
 ! A23   A(12,15,16)           113.1007         -DE/DX =    0.0                 !
 ! D1    D(2,1,3,4)            179.2127         -DE/DX =    0.0                 !
 ! D2    D(5,1,3,4)             -0.0704         -DE/DX =    0.0                 !
 ! D3    D(2,1,5,6)              3.3259         -DE/DX =    0.0                 !
 ! D4    D(2,1,5,7)           -119.2072         -DE/DX =    0.0                 !
 ! D5    D(2,1,5,8)            125.6555         -DE/DX =    0.0                 !
 ! D6    D(3,1,5,6)           -177.4377         -DE/DX =    0.0                 !
 ! D7    D(3,1,5,7)             60.0292         -DE/DX =    0.0                 !
 ! D8    D(3,1,5,8)            -55.1082         -DE/DX =    0.0                 !
 ! D9    D(1,5,6,9)             70.3006         -DE/DX =    0.0                 !
 ! D10   D(1,5,6,12)          -169.4409         -DE/DX =    0.0                 !
 ! D11   D(1,5,6,13)           -54.1966         -DE/DX =    0.0                 !
 ! D12   D(7,5,6,9)           -169.8443         -DE/DX =    0.0                 !
 ! D13   D(7,5,6,12)           -49.5858         -DE/DX =    0.0                 !
 ! D14   D(7,5,6,13)            65.6585         -DE/DX =    0.0                 !
 ! D15   D(8,5,6,9)            -51.0503         -DE/DX =    0.0                 !
 ! D16   D(8,5,6,12)            69.2082         -DE/DX =    0.0                 !
 ! D17   D(8,5,6,13)          -175.5475         -DE/DX =    0.0                 !
 ! D18   D(5,6,9,10)           -67.4229         -DE/DX =    0.0                 !
 ! D19   D(5,6,9,11)           177.2188         -DE/DX =    0.0                 !
 ! D20   D(12,6,9,10)          172.8833         -DE/DX =    0.0                 !
 ! D21   D(12,6,9,11)           57.5249         -DE/DX =    0.0                 !
 ! D22   D(13,6,9,10)           54.3488         -DE/DX =    0.0                 !
 ! D23   D(13,6,9,11)          -61.0095         -DE/DX =    0.0                 !
 ! D24   D(5,6,12,14)         -106.4439         -DE/DX =    0.0                 !
 ! D25   D(5,6,12,15)           73.4072         -DE/DX =    0.0                 !
 ! D26   D(9,6,12,14)           14.4311         -DE/DX =    0.0                 !
 ! D27   D(9,6,12,15)         -165.7177         -DE/DX =    0.0                 !
 ! D28   D(13,6,12,14)         137.0297         -DE/DX =    0.0                 !
 ! D29   D(13,6,12,15)         -43.1191         -DE/DX =    0.0                 !
 ! D30   D(6,12,15,16)           4.5383         -DE/DX =    0.0                 !
 ! D31   D(14,12,15,16)       -175.6021         -DE/DX =    0.0                 !
 --------------------------------------------------------------------------------
 GradGradGradGradGradGradGradGradGradGradGradGradGradGradGradGradGradGrad

                          Input orientation:                          
 ---------------------------------------------------------------------
 Center     Atomic      Atomic             Coordinates (Angstroms)
 Number     Number       Type             X           Y           Z
 ---------------------------------------------------------------------
      1          6           0       -2.481115    2.028027   -0.408796
      2          8           0       -2.523587    1.008249   -1.034010
      3          8           0       -1.303444    2.547486   -0.101281
      4          1           0       -1.377679    3.364251    0.386302
      5          6           0       -3.684758    2.804306    0.058950
      6          6           0       -5.009713    2.114323   -0.276765
      7          1           0       -3.621336    3.783281   -0.406038
      8          1           0       -3.601657    2.951072    1.130469
      9          7           0       -5.184022    0.925141    0.533367
     10          1           0       -4.495275    0.252163    0.255541
     11          1           0       -6.076631    0.514107    0.330960
     12          6           0       -6.145477    3.086203   -0.004897
     13          1           0       -5.029262    1.909795   -1.343928
     14          8           0       -6.894922    3.008813    0.922045
     15          8           0       -6.289427    4.079511   -0.869852
     16          1           0       -5.690205    4.021254   -1.609807
 ---------------------------------------------------------------------
                    Distance matrix (angstroms):
                    1          2          3          4          5
     1  C    0.000000
     2  O    1.196931   0.000000
     3  O    1.323371   2.174393   0.000000
     4  H    1.906632   2.980124   0.954125   0.000000
     5  C    1.506703   2.401812   2.400477   2.396521   0.000000
     6  C    2.533513   2.824472   3.735620   3.897903   1.531106
     7  H    2.093091   3.049623   2.644370   2.416068   1.085646
     8  H    2.115884   3.101897   2.638537   2.381298   1.084712
     9  N    3.067529   3.088931   4.253665   4.523177   2.450331
    10  H    2.766203   2.474300   3.947609   4.406994   2.684962
    11  H    3.970760   3.838156   5.206225   5.496047   3.322658
    12  C    3.835417   4.300587   4.872863   4.791894   2.477636
    13  H    2.716893   2.680903   3.979013   4.294554   2.139137
    14  O    4.713255   5.190084   5.703038   5.554577   3.330451
    15  O    4.350219   4.862217   5.272365   5.120038   3.045180
    16  H    3.964044   4.408765   4.867373   4.797289   2.878807
                    6          7          8          9         10
     6  C    0.000000
     7  H    2.174792   0.000000
     8  H    2.159416   1.747517   0.000000
     9  N    1.449431   3.390196   2.639092   0.000000
    10  H    2.003905   3.697330   2.974586   1.002227   0.000000
    11  H    2.017012   4.154412   3.564199   1.003329   1.604678
    12  C    1.519349   2.649173   2.788967   2.425760   3.289799
    13  H    1.086762   2.524251   3.040552   2.125495   2.364569
    14  O    2.406506   3.616624   3.300359   2.723956   3.715058
    15  O    2.418964   2.724258   3.535360   3.625051   4.374253
    16  H    2.424140   2.405392   3.607830   3.799385   4.371891
                   11         12         13         14         15
    11  H    0.000000
    12  C    2.594844   0.000000
    13  H    2.418714   2.103064   0.000000
    14  O    2.691197   1.194520   3.134193   0.000000
    15  O    3.768201   1.324965   2.553514   2.173457   0.000000
    16  H    4.026907   1.912415   2.228407   2.981049   0.953936
                   16
    16  H    0.000000
 Stoichiometry    C4H7NO4
 Framework group  C1[X(C4H7NO4)]
 Deg. of freedom    42
 Full point group                 C1      NOp   1
 Largest Abelian subgroup         C1      NOp   1
 Largest concise Abelian subgroup C1      NOp   1
                         Standard orientation:                         
 ---------------------------------------------------------------------
 Center     Atomic      Atomic             Coordinates (Angstroms)
 Number     Number       Type             X           Y           Z
 ---------------------------------------------------------------------
      1          6           0        1.945005   -0.122547    0.043048
      2          8           0        2.223559    0.711988    0.854591
      3          8           0        2.917058   -0.808580   -0.536420
      4          1           0        2.591082   -1.455762   -1.157105
      5          6           0        0.544005   -0.483345   -0.377877
      6          6           0       -0.524136    0.390879    0.284763
      7          1           0        0.406177   -1.530946   -0.128551
      8          1           0        0.478714   -0.398226   -1.457271
      9          7           0       -0.475166    1.740759   -0.240857
     10          1           0        0.385013    2.161785    0.054592
     11          1           0       -1.210682    2.284098    0.172020
     12          6           0       -1.889110   -0.214910    0.004967
     13          1           0       -0.383597    0.347296    1.361518
     14          8           0       -2.684896    0.236069   -0.763292
     15          8           0       -2.189693   -1.320379    0.670639
     16          1           0       -1.523360   -1.566807    1.307245
 ---------------------------------------------------------------------
 Rotational constants (GHZ):           3.2461566           0.9022283           0.8032488

 **********************************************************************

            Population analysis using the SCF Density.

 **********************************************************************

 Orbital symmetries:
       Occupied  (A) (A) (A) (A) (A) (A) (A) (A) (A) (A) (A) (A)
                 (A) (A) (A) (A) (A) (A) (A) (A) (A) (A) (A) (A)
                 (A) (A) (A) (A) (A) (A) (A) (A) (A) (A) (A)
       Virtual   (A) (A) (A) (A) (A) (A) (A) (A) (A) (A) (A) (A)
                 (A) (A) (A) (A) (A) (A) (A) (A) (A) (A) (A) (A)
                 (A) (A) (A) (A) (A) (A) (A) (A) (A) (A) (A) (A)
                 (A) (A) (A) (A) (A) (A) (A) (A) (A) (A) (A) (A)
                 (A) (A) (A) (A) (A) (A) (A) (A) (A) (A) (A) (A)
                 (A) (A) (A) (A) (A) (A) (A) (A) (A) (A) (A) (A)
                 (A) (A) (A) (A) (A) (A) (A) (A) (A) (A) (A) (A)
                 (A) (A) (A) (A) (A) (A) (A) (A) (A) (A) (A) (A)
                 (A) (A) (A) (A) (A) (A) (A) (A) (A) (A) (A) (A)
                 (A) (A) (A) (A) (A) (A)
 The electronic state is 1-A.
 Alpha  occ. eigenvalues --  -20.61838 -20.61833 -20.56312 -20.56213 -15.54459
 Alpha  occ. eigenvalues --  -11.39865 -11.39420 -11.27924 -11.24774  -1.47987
 Alpha  occ. eigenvalues --   -1.47869  -1.37776  -1.37700  -1.20270  -1.04965
 Alpha  occ. eigenvalues --   -0.93409  -0.84665  -0.83266  -0.73370  -0.72467
 Alpha  occ. eigenvalues --   -0.69407  -0.67562  -0.66278  -0.65004  -0.63974
 Alpha  occ. eigenvalues --   -0.61773  -0.58336  -0.56215  -0.53832  -0.53202
 Alpha  occ. eigenvalues --   -0.49167  -0.48822  -0.46910  -0.44991  -0.40631
 Alpha virt. eigenvalues --    0.18020   0.18704   0.22650   0.24428   0.26370
 Alpha virt. eigenvalues --    0.30931   0.32497   0.34699   0.34925   0.39135
 Alpha virt. eigenvalues --    0.40957   0.44921   0.46299   0.50391   0.54457
 Alpha virt. eigenvalues --    0.54667   0.62131   0.73687   0.76737   0.77792
 Alpha virt. eigenvalues --    0.78363   0.80019   0.84909   0.86547   0.91259
 Alpha virt. eigenvalues --    0.92355   0.94112   0.95736   0.98178   0.98731
 Alpha virt. eigenvalues --    1.02948   1.03891   1.04709   1.08613   1.09543
 Alpha virt. eigenvalues --    1.11801   1.14988   1.17731   1.18474   1.20582
 Alpha virt. eigenvalues --    1.21243   1.22711   1.24841   1.26556   1.27102
 Alpha virt. eigenvalues --    1.29734   1.30027   1.32303   1.35331   1.38452
 Alpha virt. eigenvalues --    1.39573   1.44903   1.51639   1.56070   1.62084
 Alpha virt. eigenvalues --    1.66281   1.67091   1.68883   1.73470   1.77310
 Alpha virt. eigenvalues --    1.82770   1.88856   1.93494   1.97512   1.98253
 Alpha virt. eigenvalues --    2.01212   2.04537   2.05029   2.07776   2.08487
 Alpha virt. eigenvalues --    2.10299   2.11569   2.13175   2.15008   2.19121
 Alpha virt. eigenvalues --    2.23373   2.27488   2.29010   2.31366   2.31758
 Alpha virt. eigenvalues --    2.36095   2.40067   2.45126   2.51016   2.59514
 Alpha virt. eigenvalues --    2.65227   2.71004   2.75403   2.78000   2.81619
 Alpha virt. eigenvalues --    2.84981   2.87889   2.90760   2.96431   2.97603
 Alpha virt. eigenvalues --    2.97752   3.06080   3.10310   3.15480   3.23662
 Alpha virt. eigenvalues --    3.25210   3.36893   3.37978   3.47707   3.50444
 Alpha virt. eigenvalues --    4.19365   4.29501   4.38736   4.51090   4.54090
 Alpha virt. eigenvalues --    4.66328   4.79077   4.90557   5.08570
          Condensed to atoms (all electrons):
               1          2          3          4          5          6
     1  C    3.989301   0.582138   0.316306  -0.017663   0.380883  -0.039010
     2  O    0.582138   8.210865  -0.078196   0.002875  -0.092078   0.007688
     3  O    0.316306  -0.078196   8.321947   0.257472  -0.087382   0.003367
     4  H   -0.017663   0.002875   0.257472   0.225853   0.001989   0.000163
     5  C    0.380883  -0.092078  -0.087382   0.001989   5.413591   0.268042
     6  C   -0.039010   0.007688   0.003367   0.000163   0.268042   5.139989
     7  H   -0.024178   0.001207   0.000351   0.000098   0.372260  -0.031325
     8  H   -0.025403   0.001168   0.000987   0.000286   0.371883  -0.032390
     9  N   -0.001050  -0.004350  -0.000077  -0.000002  -0.067579   0.258337
    10  H    0.001838   0.009034   0.000012  -0.000011  -0.006502  -0.027192
    11  H   -0.000095   0.000079   0.000002   0.000000   0.005545  -0.035958
    12  C    0.002724   0.000166  -0.000038  -0.000011  -0.031291   0.354550
    13  H   -0.003493   0.003786   0.000093  -0.000006  -0.046049   0.412289
    14  O   -0.000056  -0.000000   0.000000   0.000000   0.000208  -0.083097
    15  O   -0.000053   0.000001  -0.000000  -0.000000   0.000768  -0.088765
    16  H   -0.000058  -0.000004  -0.000001  -0.000000  -0.000568   0.003105
               7          8          9         10         11         12
     1  C   -0.024178  -0.025403  -0.001050   0.001838  -0.000095   0.002724
     2  O    0.001207   0.001168  -0.004350   0.009034   0.000079   0.000166
     3  O    0.000351   0.000987  -0.000077   0.000012   0.000002  -0.000038
     4  H    0.000098   0.000286  -0.000002  -0.000011   0.000000  -0.000011
     5  C    0.372260   0.371883  -0.067579  -0.006502   0.005545  -0.031291
     6  C   -0.031325  -0.032390   0.258337  -0.027192  -0.035958   0.354550
     7  H    0.425006  -0.012632   0.002910   0.000003  -0.000076  -0.003884
     8  H   -0.012632   0.432160   0.005155  -0.000141  -0.000113  -0.003741
     9  N    0.002910   0.005155   7.134720   0.322557   0.330726  -0.054140
    10  H    0.000003  -0.000141   0.322557   0.334382  -0.019873   0.004467
    11  H   -0.000076  -0.000113   0.330726  -0.019873   0.342277  -0.002949
    12  C   -0.003884  -0.003741  -0.054140   0.004467  -0.002949   4.074649
    13  H    0.001662   0.003765  -0.038900  -0.001950  -0.001476  -0.051102
    14  O    0.000045   0.000809   0.002074   0.000141   0.003553   0.604217
    15  O    0.003775   0.000260   0.002362  -0.000062   0.000126   0.295745
    16  H    0.001095   0.000037   0.000068  -0.000011  -0.000019  -0.017022
              13         14         15         16
     1  C   -0.003493  -0.000056  -0.000053  -0.000058
     2  O    0.003786  -0.000000   0.000001  -0.000004
     3  O    0.000093   0.000000  -0.000000  -0.000001
     4  H   -0.000006   0.000000  -0.000000  -0.000000
     5  C   -0.046049   0.000208   0.000768  -0.000568
     6  C    0.412289  -0.083097  -0.088765   0.003105
     7  H    0.001662   0.000045   0.003775   0.001095
     8  H    0.003765   0.000809   0.000260   0.000037
     9  N   -0.038900   0.002074   0.002362   0.000068
    10  H   -0.001950   0.000141  -0.000062  -0.000011
    11  H   -0.001476   0.003553   0.000126  -0.000019
    12  C   -0.051102   0.604217   0.295745  -0.017022
    13  H    0.481766   0.001432   0.003364   0.001827
    14  O    0.001432   8.188477  -0.082937   0.002905
    15  O    0.003364  -0.082937   8.347047   0.254795
    16  H    0.001827   0.002905   0.254795   0.224746
 Mulliken charges:
               1
     1  C    0.837869
     2  O   -0.644379
     3  O   -0.734841
     4  H    0.528958
     5  C   -0.483718
     6  C   -0.109793
     7  H    0.263685
     8  H    0.257909
     9  N   -0.892810
    10  H    0.383309
    11  H    0.378253
    12  C    0.827660
    13  H    0.232992
    14  O   -0.637773
    15  O   -0.736427
    16  H    0.529106
 Sum of Mulliken charges =  -0.00000
 Mulliken charges with hydrogens summed into heavy atoms:
               1
     1  C    0.837869
     2  O   -0.644379
     3  O   -0.205884
     5  C    0.037876
     6  C    0.123199
     9  N   -0.131248
    12  C    0.827660
    14  O   -0.637773
    15  O   -0.207321
 Electronic spatial extent (au):  <R**2>=           1394.3676
 Charge=              0.0000 electrons
 Dipole moment (field-independent basis, Debye):
    X=              2.2238    Y=             -4.6684    Z=              1.5825  Tot=              5.4077
 Quadrupole moment (field-independent basis, Debye-Ang):
   XX=            -80.6688   YY=            -45.1408   ZZ=            -49.9916
   XY=             -7.5206   XZ=            -15.7520   YZ=              3.0674
 Traceless Quadrupole moment (field-independent basis, Debye-Ang):
   XX=            -22.0683   YY=             13.4596   ZZ=              8.6088
   XY=             -7.5206   XZ=            -15.7520   YZ=              3.0674
 Octapole moment (field-independent basis, Debye-Ang**2):
  XXX=             15.0081  YYY=             -5.4604  ZZZ=              3.0562  XYY=              7.6305
  XXY=             -8.1481  XXZ=             -0.8795  XZZ=              4.1128  YZZ=            -15.8545
  YYZ=              5.4974  XYZ=             -0.6212
 Hexadecapole moment (field-independent basis, Debye-Ang**3):
 XXXX=          -1482.0533 YYYY=           -263.9759 ZZZZ=           -133.1576 XXXY=            -43.0260
 XXXZ=            -76.1248 YYYX=            -25.7286 YYYZ=             13.7259 ZZZX=            -30.8821
 ZZZY=              1.2834 XXYY=           -240.8741 XXZZ=           -224.7513 YYZZ=            -67.9422
 XXYZ=             16.2558 YYXZ=            -26.8712 ZZXY=             -6.2986
 N-N= 4.670860810501D+02 E-N=-2.133259752052D+03  KE= 5.084280647025D+02
 Unable to Open any file for archive entry.
 1\1\GINC-TERPSICHORE\FOpt\RHF\6-31G(d)\C4H7N1O4\MASTER9\05-Feb-2024\0\
 \# HF/6-31G* scrf=smd opt\\Aspartate molecule\\0,1\C,-2.4811145626,2.0
 280271293,-0.4087957832\O,-2.5235870093,1.008249211,-1.0340102573\O,-1
 .303443619,2.5474855112,-0.1012805917\H,-1.3776792314,3.3642510279,0.3
 863024226\C,-3.6847584685,2.804306073,0.0589501331\C,-5.0097129812,2.1
 143229584,-0.2767651509\H,-3.6213362344,3.7832806456,-0.4060381597\H,-
 3.6016571651,2.9510717369,1.130469439\N,-5.1840220881,0.9251409837,0.5
 333665144\H,-4.4952746314,0.2521628116,0.2555408395\H,-6.0766313251,0.
 5141067435,0.3309597998\C,-6.1454771383,3.0862025088,-0.0048968726\H,-
 5.0292616289,1.9097948918,-1.3439284918\O,-6.8949217797,3.0088126706,0
 .9220452539\O,-6.2894268831,4.0795114722,-0.8698520143\H,-5.690205254,
 4.0212536244,-1.6098070809\\Version=EM64L-G16RevC.01\State=1-A\HF=-509
 .5054789\RMSD=2.815e-09\RMSF=2.351e-05\Dipole=1.1576563,1.399614,-1.10
 78889\Quadrupole=-8.5453988,5.2339146,3.3114842,13.2529532,11.8471671,
 -2.6609137\PG=C01 [X(C4H7N1O4)]\\@
 The archive entry for this job was punched.


 THERE IS NOTHING NOBLE IN BEING SUPERIOR TO SOME OTHER MAN.
 TRUE NOBILITY IS BEING SUPERIOR TO YOUR FORMER SELF.

                                                   -- HINDU PROVERB
 Job cpu time:       0 days  0 hours  5 minutes 43.1 seconds.
 Elapsed time:       0 days  0 hours  5 minutes 43.6 seconds.
 File lengths (MBytes):  RWF=     41 Int=      0 D2E=      0 Chk=      5 Scr=      1
 Normal termination of Gaussian 16 at Mon Feb  5 16:00:57 2024.
