 Entering Gaussian System, Link 0=g16
 Input=RRD_gesp.com
 Output=RRD_gesp.log
 Initial command:
 /usr/local/gaussian/gaussian16.c01-legacy/g16/l1.exe "/scratch/master9/Gau-3214217.inp" -scrdir="/scratch/master9/"
 Entering Link 1 = /usr/local/gaussian/gaussian16.c01-legacy/g16/l1.exe PID=   3214218.
  
 Copyright (c) 1988-2019, Gaussian, Inc.  All Rights Reserved.
  
 This is part of the Gaussian(R) 16 program.  It is based on
 the Gaussian(R) 09 system (copyright 2009, Gaussian, Inc.),
 the Gaussian(R) 03 system (copyright 2003, Gaussian, Inc.),
 the Gaussian(R) 98 system (copyright 1998, Gaussian, Inc.),
 the Gaussian(R) 94 system (copyright 1995, Gaussian, Inc.),
 the Gaussian 92(TM) system (copyright 1992, Gaussian, Inc.),
 the Gaussian 90(TM) system (copyright 1990, Gaussian, Inc.),
 the Gaussian 88(TM) system (copyright 1988, Gaussian, Inc.),
 the Gaussian 86(TM) system (copyright 1986, Carnegie Mellon
 University), and the Gaussian 82(TM) system (copyright 1983,
 Carnegie Mellon University). Gaussian is a federally registered
 trademark of Gaussian, Inc.
  
 This software contains proprietary and confidential information,
 including trade secrets, belonging to Gaussian, Inc.
  
 This software is provided under written license and may be
 used, copied, transmitted, or stored only in accord with that
 written license.
  
 The following legend is applicable only to US Government
 contracts under FAR:
  
                    RESTRICTED RIGHTS LEGEND
  
 Use, reproduction and disclosure by the US Government is
 subject to restrictions as set forth in subparagraphs (a)
 and (c) of the Commercial Computer Software - Restricted
 Rights clause in FAR 52.227-19.
  
 Gaussian, Inc.
 340 Quinnipiac St., Bldg. 40, Wallingford CT 06492
  
  
 ---------------------------------------------------------------
 Warning -- This program may not be used in any manner that
 competes with the business of Gaussian, Inc. or will provide
 assistance to any competitor of Gaussian, Inc.  The licensee
 of this program is prohibited from giving any competitor of
 Gaussian, Inc. access to this program.  By using this program,
 the user acknowledges that Gaussian, Inc. is engaged in the
 business of creating and licensing software in the field of
 computational chemistry and represents and warrants to the
 licensee that it is not a competitor of Gaussian, Inc. and that
 it will not use this program in any manner prohibited above.
 ---------------------------------------------------------------
  

 Cite this work as:
 Gaussian 16, Revision C.01,
 M. J. Frisch, G. W. Trucks, H. B. Schlegel, G. E. Scuseria, 
 M. A. Robb, J. R. Cheeseman, G. Scalmani, V. Barone, 
 G. A. Petersson, H. Nakatsuji, X. Li, M. Caricato, A. V. Marenich, 
 J. Bloino, B. G. Janesko, R. Gomperts, B. Mennucci, H. P. Hratchian, 
 J. V. Ortiz, A. F. Izmaylov, J. L. Sonnenberg, D. Williams-Young, 
 F. Ding, F. Lipparini, F. Egidi, J. Goings, B. Peng, A. Petrone, 
 T. Henderson, D. Ranasinghe, V. G. Zakrzewski, J. Gao, N. Rega, 
 G. Zheng, W. Liang, M. Hada, M. Ehara, K. Toyota, R. Fukuda, 
 J. Hasegawa, M. Ishida, T. Nakajima, Y. Honda, O. Kitao, H. Nakai, 
 T. Vreven, K. Throssell, J. A. Montgomery, Jr., J. E. Peralta, 
 F. Ogliaro, M. J. Bearpark, J. J. Heyd, E. N. Brothers, K. N. Kudin, 
 V. N. Staroverov, T. A. Keith, R. Kobayashi, J. Normand, 
 K. Raghavachari, A. P. Rendell, J. C. Burant, S. S. Iyengar, 
 J. Tomasi, M. Cossi, J. M. Millam, M. Klene, C. Adamo, R. Cammi, 
 J. W. Ochterski, R. L. Martin, K. Morokuma, O. Farkas, 
 J. B. Foresman, and D. J. Fox, Gaussian, Inc., Wallingford CT, 2019.
 
 ******************************************
 Gaussian 16:  EM64L-G16RevC.01  3-Jul-2019
                 5-Feb-2024 
 ******************************************
 %chk=RRD_gesp
 ----------------------------------------------------------------------
 #HF/6-31G* scrf=smd SCF=tight Test Pop=MK iop(6/33=2) iop(6/42=6) # io
 p(6/50=1)
 ----------------------------------------------------------------------
 1/38=1,172=1/1;
 2/12=2,17=6,18=5,40=1/2;
 3/5=1,6=6,7=1,11=9,25=1,30=1,70=32201/1,2,3;
 4//1;
 5/5=2,32=2,38=5/2;
 6/7=2,8=2,9=2,10=2,15=8,20=1,28=1,33=2,42=6,50=1/1,2;
 99/5=1,9=1/99;
 -----------------
 calc RESP charges
 -----------------
 Symbolic Z-matrix:
 Charge =  0 Multiplicity = 1
 O                     0.10577  -1.74069   1.7773 
 H                     0.83484  -1.82303   2.38243 
 C                    -0.61301  -1.62701  -0.46701 
 H                    -1.167    -2.52497  -0.21632 
 C                    -1.54878  -0.44041  -0.31344 
 C                    -1.39791   0.70994  -1.08159 
 C                    -2.27063   1.77773  -0.9339 
 C                    -3.3068    1.7116   -0.01511 
 C                    -3.4685    0.56741   0.75151 
 C                    -2.59831  -0.50087   0.59804 
 C                     0.61301  -1.62701   0.46701 
 C                     1.54878  -0.44041   0.31344 
 C                     1.39791   0.70994   1.08159 
 C                     2.27063   1.77773   0.9339 
 C                     3.3068    1.7116    0.01512 
 C                     3.4685    0.56741  -0.75151 
 C                     2.59831  -0.50087  -0.59804 
 O                    -0.10577  -1.74069  -1.7773 
 H                    -0.83484  -1.82303  -2.38244 
 H                    -0.60296   0.77311  -1.80069 
 H                    -2.14075   2.65857  -1.53724 
 H                    -3.98442   2.53904   0.09739 
 H                    -4.2746    0.50187   1.46043 
 H                    -2.74088  -1.38942   1.18697 
 H                     1.167    -2.52497   0.21632 
 H                     0.60296   0.77311   1.80069 
 H                     2.14075   2.65857   1.53724 
 H                     3.98442   2.53904  -0.09739 
 H                     4.2746    0.50187  -1.46043 
 H                     2.74088  -1.38942  -1.18697 
 
                          Input orientation:                          
 ---------------------------------------------------------------------
 Center     Atomic      Atomic             Coordinates (Angstroms)
 Number     Number       Type             X           Y           Z
 ---------------------------------------------------------------------
      1          8           0        0.105774   -1.740690    1.777295
      2          1           0        0.834841   -1.823034    2.382433
      3          6           0       -0.613009   -1.627010   -0.467006
      4          1           0       -1.166997   -2.524969   -0.216322
      5          6           0       -1.548779   -0.440410   -0.313444
      6          6           0       -1.397913    0.709936   -1.081586
      7          6           0       -2.270630    1.777733   -0.933896
      8          6           0       -3.306802    1.711604   -0.015114
      9          6           0       -3.468497    0.567408    0.751510
     10          6           0       -2.598305   -0.500868    0.598044
     11          6           0        0.613009   -1.627010    0.467006
     12          6           0        1.548779   -0.440410    0.313444
     13          6           0        1.397913    0.709936    1.081586
     14          6           0        2.270629    1.777733    0.933896
     15          6           0        3.306802    1.711604    0.015115
     16          6           0        3.468498    0.567409   -0.751510
     17          6           0        2.598306   -0.500868   -0.598043
     18          8           0       -0.105774   -1.740689   -1.777296
     19          1           0       -0.834841   -1.823028   -2.382435
     20          1           0       -0.602961    0.773106   -1.800689
     21          1           0       -2.140754    2.658565   -1.537241
     22          1           0       -3.984424    2.539037    0.097391
     23          1           0       -4.274596    0.501865    1.460431
     24          1           0       -2.740881   -1.389422    1.186969
     25          1           0        1.166998   -2.524969    0.216321
     26          1           0        0.602960    0.773106    1.800689
     27          1           0        2.140753    2.658566    1.537241
     28          1           0        3.984423    2.539037   -0.097390
     29          1           0        4.274597    0.501866   -1.460430
     30          1           0        2.740882   -1.389422   -1.186968
 ---------------------------------------------------------------------
                    Distance matrix (angstroms):
                    1          2          3          4          5
     1  O    0.000000
     2  H    0.951058   0.000000
     3  C    2.359334   3.202186   0.000000
     4  H    2.491897   3.354638   1.084470   0.000000
     5  C    2.966389   3.855003   1.518969   2.121456   0.000000
     6  C    4.054608   4.837412   2.540689   3.356578   1.391438
     7  C    5.037574   5.797199   3.815491   4.499574   2.413750
     8  C    5.174625   5.949378   4.313591   4.750558   2.794783
     9  C    4.376638   5.185831   3.801850   3.974468   2.415604
    10  C    3.199974   4.088846   2.518715   2.609371   1.391392
    11  C    1.409634   1.938168   1.541265   2.107531   2.586590
    12  C    2.432252   2.588836   2.586590   3.464315   3.160357
    13  C    2.856432   2.902618   3.450110   4.327579   3.457224
    14  C    4.216304   4.138269   4.676555   5.626146   4.589542
    15  C    5.026947   4.920208   5.171431   6.165792   5.321258
    16  C    4.798967   4.740460   4.642749   5.597950   5.136212
    17  C    3.659523   3.706908   3.405571   4.291876   4.157279
    18  O    3.560880   4.265546   1.409635   2.043998   2.432252
    19  H    4.265547   5.048941   1.938169   2.301107   2.588834
    20  H    4.429836   5.128911   2.745791   3.702115   2.139881
    21  H    5.948654   6.656030   4.673923   5.437100   3.384045
    22  H    6.153687   6.890167   5.388964   5.803488   3.870175
    23  H    4.931237   5.688725   4.653423   4.650849   3.385940
    24  H    2.928365   3.795121   2.705535   2.394954   2.138450
    25  H    2.043998   2.301105   2.107532   2.373755   3.464316
    26  H    2.562599   2.670606   3.518747   4.251868   3.251486
    27  H    4.853063   4.743890   5.474155   6.394156   5.161524
    28  H    6.072432   5.924277   6.215219   7.224640   6.288093
    29  H    5.735068   5.657268   5.422886   6.349841   6.009590
    30  H    3.981713   4.069599   3.438514   4.183675   4.479382
                    6          7          8          9         10
     6  C    0.000000
     7  C    1.386953   0.000000
     8  C    2.405111   1.386429   0.000000
     9  C    2.769093   2.395906   1.386738   0.000000
    10  C    2.393354   2.765182   2.402699   1.386362   0.000000
    11  C    3.450110   4.676556   5.171431   4.642747   3.405570
    12  C    3.457224   4.589543   5.321258   5.136210   4.157278
    13  C    3.534962   4.319788   4.933602   4.879673   4.203524
    14  C    4.319787   4.910365   5.657979   5.868196   5.386217
    15  C    4.933603   5.657980   6.613673   6.910582   6.332861
    16  C    4.879674   5.868197   6.910583   7.097955   6.306236
    17  C    4.203525   5.386219   6.332862   6.306235   5.332484
    18  O    2.856431   4.216304   5.026947   4.798966   3.659523
    19  H    2.902613   4.138265   4.920206   4.740458   3.706908
    20  H    1.073801   2.131132   3.373398   3.842828   3.370212
    21  H    2.134617   1.075527   2.138521   3.372569   3.840679
    22  H    3.380183   2.140146   1.075395   2.140414   3.378313
    23  H    3.844535   3.372910   2.139469   1.075482   2.135213
    24  H    3.370046   3.840583   3.373667   2.132659   1.075495
    25  H    4.327579   5.626147   6.165793   5.597949   4.291877
    26  H    3.509272   4.092035   4.411820   4.209495   3.649310
    27  H    4.814309   5.132513   5.743030   6.037715   5.772589
    28  H    5.769211   6.356494   7.338486   7.755899   7.284021
    29  H    5.688953   6.689176   7.812171   8.053104   7.244279
    30  H    4.641986   5.933816   6.896672   6.792884   5.699361
                   11         12         13         14         15
    11  C    0.000000
    12  C    1.518969   0.000000
    13  C    2.540689   1.391438   0.000000
    14  C    3.815490   2.413749   1.386952   0.000000
    15  C    4.313591   2.794783   2.405110   1.386429   0.000000
    16  C    3.801851   2.415605   2.769093   2.395906   1.386738
    17  C    2.518716   1.391392   2.393354   2.765182   2.402699
    18  O    2.359335   2.966389   4.054608   5.037573   5.174625
    19  H    3.202188   3.855002   4.837410   5.797195   5.949376
    20  H    3.518747   3.251486   3.509273   4.092035   4.411822
    21  H    5.474155   5.161524   4.814309   5.132512   5.743031
    22  H    6.215219   6.288093   5.769212   6.356494   7.338487
    23  H    5.422885   6.009589   5.688952   6.689174   7.812170
    24  H    3.438513   4.479381   4.641985   5.933814   6.896671
    25  H    1.084471   2.121456   3.356578   4.499573   4.750557
    26  H    2.745791   2.139881   1.073802   2.131132   3.373398
    27  H    4.673924   3.384046   2.134617   1.075528   2.138522
    28  H    5.388963   3.870175   3.380182   2.140146   1.075394
    29  H    4.653423   3.385941   3.844535   3.372910   2.139469
    30  H    2.705535   2.138450   3.370046   3.840582   3.373667
                   16         17         18         19         20
    16  C    0.000000
    17  C    1.386363   0.000000
    18  O    4.376640   3.199975   0.000000
    19  H    5.185830   4.088846   0.951058   0.000000
    20  H    4.209497   3.649312   2.562598   2.670601   0.000000
    21  H    6.037716   5.772590   4.853061   4.743884   2.447278
    22  H    7.755901   7.284023   6.072432   5.924274   4.260929
    23  H    8.053104   7.244278   5.735068   5.657266   4.918270
    24  H    6.792884   5.699361   3.981714   4.069600   4.263019
    25  H    3.974469   2.609371   2.491897   3.354641   4.251868
    26  H    3.842830   3.370212   4.429836   5.128909   3.797916
    27  H    3.372570   3.840679   5.948654   6.656028   4.714308
    28  H    2.140413   3.378313   6.153686   6.890163   5.202291
    29  H    1.075481   2.135214   4.931238   5.688724   4.896930
    30  H    2.132659   1.075495   2.928366   3.795122   4.029202
                   21         22         23         24         25
    21  H    0.000000
    22  H    2.466866   0.000000
    23  H    4.265053   2.468228   0.000000
    24  H    4.916063   4.262202   2.450312   0.000000
    25  H    6.394156   7.224642   6.349841   4.183676   0.000000
    26  H    4.714308   5.202291   4.896928   4.029200   3.702116
    27  H    5.271029   6.293270   6.768601   6.351319   5.437101
    28  H    6.293270   7.971227   8.648021   7.893800   5.803486
    29  H    6.768602   8.648023   9.034386   7.733216   4.650849
    30  H    6.351320   7.893802   7.733215   5.973718   2.394953
                   26         27         28         29         30
    26  H    0.000000
    27  H    2.447278   0.000000
    28  H    4.260928   2.466865   0.000000
    29  H    4.918271   4.265053   2.468227   0.000000
    30  H    4.263019   4.916063   4.262202   2.450313   0.000000
 Stoichiometry    C14H14O2
 Framework group  C1[X(C14H14O2)]
 Deg. of freedom    84
 Full point group                 C1      NOp   1
 Largest Abelian subgroup         C1      NOp   1
 Largest concise Abelian subgroup C1      NOp   1
                         Standard orientation:                         
 ---------------------------------------------------------------------
 Center     Atomic      Atomic             Coordinates (Angstroms)
 Number     Number       Type             X           Y           Z
 ---------------------------------------------------------------------
      1          8           0       -0.105774   -1.740690   -1.777295
      2          1           0       -0.834841   -1.823034   -2.382433
      3          6           0        0.613009   -1.627010    0.467006
      4          1           0        1.166997   -2.524969    0.216322
      5          6           0        1.548779   -0.440410    0.313444
      6          6           0        1.397913    0.709936    1.081586
      7          6           0        2.270630    1.777733    0.933896
      8          6           0        3.306802    1.711604    0.015114
      9          6           0        3.468497    0.567408   -0.751510
     10          6           0        2.598305   -0.500868   -0.598044
     11          6           0       -0.613009   -1.627010   -0.467006
     12          6           0       -1.548779   -0.440410   -0.313444
     13          6           0       -1.397913    0.709936   -1.081586
     14          6           0       -2.270629    1.777733   -0.933896
     15          6           0       -3.306802    1.711604   -0.015115
     16          6           0       -3.468498    0.567409    0.751510
     17          6           0       -2.598306   -0.500868    0.598043
     18          8           0        0.105774   -1.740689    1.777296
     19          1           0        0.834841   -1.823028    2.382435
     20          1           0        0.602961    0.773106    1.800689
     21          1           0        2.140754    2.658565    1.537241
     22          1           0        3.984424    2.539037   -0.097391
     23          1           0        4.274596    0.501865   -1.460431
     24          1           0        2.740881   -1.389422   -1.186969
     25          1           0       -1.166998   -2.524969   -0.216321
     26          1           0       -0.602960    0.773106   -1.800689
     27          1           0       -2.140753    2.658566   -1.537241
     28          1           0       -3.984423    2.539037    0.097390
     29          1           0       -4.274597    0.501866    1.460430
     30          1           0       -2.740882   -1.389422    1.186968
 ---------------------------------------------------------------------
 Rotational constants (GHZ):           0.8433707           0.4015216           0.3513413
 Standard basis: 6-31G(d) (6D, 7F)
 There are   268 symmetry adapted cartesian basis functions of A   symmetry.
 There are   268 symmetry adapted basis functions of A   symmetry.
   268 basis functions,   504 primitive gaussians,   268 cartesian basis functions
    57 alpha electrons       57 beta electrons
       nuclear repulsion energy      1064.3348220255 Hartrees.
 NAtoms=   30 NActive=   30 NUniq=   30 SFac= 1.00D+00 NAtFMM=   60 NAOKFM=F Big=F
 Integral buffers will be    131072 words long.
 Raffenetti 1 integral format.
 Two-electron integral symmetry is turned on.
 ------------------------------------------------------------------------------
 Polarizable Continuum Model (PCM)
 =================================
 Model                : PCM.
 Atomic radii         : SMD-Coulomb.
 Polarization charges : Total charges.
 Charge compensation  : None.
 Solution method      : On-the-fly selection.
 Cavity type          : VdW (van der Waals Surface) (Alpha=1.000).
 Cavity algorithm     : GePol (No added spheres)
                        Default sphere list used, NSphG=   30.
                        Lebedev-Laikov grids with approx.  5.0 points / Ang**2.
                        Smoothing algorithm: York/Karplus (Gamma=1.0000).
                        Polarization charges: spherical gaussians, with
                                              point-specific exponents (IZeta= 3).
                        Self-potential: point-specific (ISelfS= 7).
                        Self-field    : sphere-specific E.n sum rule (ISelfD= 2).
 Solvent              : Water, Eps=  78.355300 Eps(inf)=   1.777849
 ------------------------------------------------------------------------------
 ------------------------------------------------------------------------------
 Atomic radii for non-electrostatic terms: SMD-CDS.
 ------------------------------------------------------------------------------
 Nuclear repulsion after PCM non-electrostatic terms =     1064.3434160462 Hartrees.
 One-electron integrals computed using PRISM.
 NBasis=   268 RedAO= T EigKep=  4.20D-04  NBF=   268
 NBsUse=   268 1.00D-06 EigRej= -1.00D+00 NBFU=   268
 ExpMin= 1.61D-01 ExpMax= 5.48D+03 ExpMxC= 8.25D+02 IAcc=3 IRadAn=         5 AccDes= 0.00D+00
 Harris functional with IExCor=  205 and IRadAn=       5 diagonalized for initial guess.
 HarFok:  IExCor=  205 AccDes= 0.00D+00 IRadAn=         5 IDoV= 1 UseB2=F ITyADJ=14
 ICtDFT=  3500011 ScaDFX=  1.000000  1.000000  1.000000  1.000000
 FoFCou: FMM=F IPFlag=           0 FMFlag=      100000 FMFlg1=           0
         NFxFlg=           0 DoJE=T BraDBF=F KetDBF=T FulRan=T
         wScrn=  0.000000 ICntrl=       500 IOpCl=  0 I1Cent=   200000004 NGrid=           0
         NMat0=    1 NMatS0=      1 NMatT0=    0 NMatD0=    1 NMtDS0=    0 NMtDT0=    0
 Petite list used in FoFCou.
 Requested convergence on RMS density matrix=1.00D-08 within 128 cycles.
 Requested convergence on MAX density matrix=1.00D-06.
 Requested convergence on             energy=1.00D-06.
 No special actions if energy rises.
 Inv3:  Mode=1 IEnd=    15160512.
 Iteration    1 A*A^-1 deviation from unit magnitude is 6.88D-15 for    839.
 Iteration    1 A*A^-1 deviation from orthogonality  is 4.22D-15 for   1857   1711.
 Iteration    1 A^-1*A deviation from unit magnitude is 6.00D-15 for     77.
 Iteration    1 A^-1*A deviation from orthogonality  is 3.60D-14 for   1502   1492.
 Error on total polarization charges =  0.04127
 SCF Done:  E(RHF) =  -688.041336879     A.U. after   13 cycles
            NFock= 13  Conv=0.40D-08     -V/T= 2.0012
 SMD-CDS (non-electrostatic) energy       (kcal/mol) =       5.39
 (included in total energy above)
 SCF density gives NOpUse=  1 NOpAll=  1.

 **********************************************************************

            Population analysis using the SCF Density.

 **********************************************************************

 Orbital symmetries:
 BldTbl:  Degeneracy threshold= 1.00D-02
       Occupied  (A) (A) (A) (A) (A) (A) (A) (A) (A) (A) (A) (A)
                 (A) (A) (A) (A) (A) (A) (A) (A) (A) (A) (A) (A)
                 (A) (A) (A) (A) (A) (A) (A) (A) (A) (A) (A) (A)
                 (A) (A) (A) (A) (A) (A) (A) (A) (A) (A) (A) (A)
                 (A) (A) (A) (A) (A) (A) (A) (A) (A)
       Virtual   (A) (A) (A) (A) (A) (A) (A) (A) (A) (A) (A) (A)
                 (A) (A) (A) (A) (A) (A) (A) (A) (A) (A) (A) (A)
                 (A) (A) (A) (A) (A) (A) (A) (A) (A) (A) (A) (A)
                 (A) (A) (A) (A) (A) (A) (A) (A) (A) (A) (A) (A)
                 (A) (A) (A) (A) (A) (A) (A) (A) (A) (A) (A) (A)
                 (A) (A) (A) (A) (A) (A) (A) (A) (A) (A) (A) (A)
                 (A) (A) (A) (A) (A) (A) (A) (A) (A) (A) (A) (A)
                 (A) (A) (A) (A) (A) (A) (A) (A) (A) (A) (A) (A)
                 (A) (A) (A) (A) (A) (A) (A) (A) (A) (A) (A) (A)
                 (A) (A) (A) (A) (A) (A) (A) (A) (A) (A) (A) (A)
                 (A) (A) (A) (A) (A) (A) (A) (A) (A) (A) (A) (A)
                 (A) (A) (A) (A) (A) (A) (A) (A) (A) (A) (A) (A)
                 (A) (A) (A) (A) (A) (A) (A) (A) (A) (A) (A) (A)
                 (A) (A) (A) (A) (A) (A) (A) (A) (A) (A) (A) (A)
                 (A) (A) (A) (A) (A) (A) (A) (A) (A) (A) (A) (A)
                 (A) (A) (A) (A) (A) (A) (A) (A) (A) (A) (A) (A)
                 (A) (A) (A) (A) (A) (A) (A) (A) (A) (A) (A) (A)
                 (A) (A) (A) (A) (A) (A) (A)
 The electronic state is 1-A.
 Alpha  occ. eigenvalues --  -20.56732 -20.56732 -11.28450 -11.28392 -11.23419
 Alpha  occ. eigenvalues --  -11.23418 -11.22796 -11.22796 -11.22750 -11.22750
 Alpha  occ. eigenvalues --  -11.22666 -11.22666 -11.22619 -11.22618 -11.22573
 Alpha  occ. eigenvalues --  -11.22573  -1.38211  -1.36746  -1.15452  -1.15098
 Alpha  occ. eigenvalues --   -1.05315  -1.02459  -1.01187  -1.01069  -0.96372
 Alpha  occ. eigenvalues --   -0.86691  -0.82451  -0.82199  -0.80924  -0.77563
 Alpha  occ. eigenvalues --   -0.72848  -0.70791  -0.68244  -0.68168  -0.65511
 Alpha  occ. eigenvalues --   -0.62759  -0.62027  -0.61631  -0.60271  -0.59050
 Alpha  occ. eigenvalues --   -0.58458  -0.57941  -0.57196  -0.54706  -0.52744
 Alpha  occ. eigenvalues --   -0.50627  -0.50349  -0.49917  -0.48696  -0.48247
 Alpha  occ. eigenvalues --   -0.46149  -0.45515  -0.43926  -0.33888  -0.33447
 Alpha  occ. eigenvalues --   -0.32484  -0.32437
 Alpha virt. eigenvalues --    0.13526   0.13711   0.14844   0.15261   0.24576
 Alpha virt. eigenvalues --    0.25128   0.25728   0.26501   0.29619   0.29696
 Alpha virt. eigenvalues --    0.32071   0.32100   0.32625   0.33492   0.34920
 Alpha virt. eigenvalues --    0.35007   0.35344   0.35465   0.37938   0.38111
 Alpha virt. eigenvalues --    0.42470   0.42519   0.44404   0.44852   0.47632
 Alpha virt. eigenvalues --    0.48820   0.49191   0.49918   0.52174   0.52850
 Alpha virt. eigenvalues --    0.54935   0.55528   0.57337   0.67059   0.67779
 Alpha virt. eigenvalues --    0.71990   0.73618   0.74478   0.74942   0.76018
 Alpha virt. eigenvalues --    0.77801   0.77951   0.78797   0.79901   0.80094
 Alpha virt. eigenvalues --    0.81330   0.81735   0.83080   0.83184   0.84080
 Alpha virt. eigenvalues --    0.84397   0.84695   0.84990   0.86120   0.86889
 Alpha virt. eigenvalues --    0.86980   0.88415   0.89904   0.91382   0.91714
 Alpha virt. eigenvalues --    0.93750   0.93781   0.98150   0.98353   1.03505
 Alpha virt. eigenvalues --    1.03515   1.07640   1.08878   1.09641   1.11126
 Alpha virt. eigenvalues --    1.12269   1.12362   1.12597   1.12795   1.13522
 Alpha virt. eigenvalues --    1.13571   1.15231   1.16057   1.16253   1.17887
 Alpha virt. eigenvalues --    1.18334   1.19098   1.20203   1.21345   1.21651
 Alpha virt. eigenvalues --    1.21973   1.23345   1.24012   1.27834   1.28046
 Alpha virt. eigenvalues --    1.31890   1.32990   1.33934   1.34368   1.35945
 Alpha virt. eigenvalues --    1.38457   1.38739   1.40736   1.43547   1.43652
 Alpha virt. eigenvalues --    1.46506   1.48021   1.50238   1.50978   1.54201
 Alpha virt. eigenvalues --    1.55120   1.64101   1.64974   1.67737   1.68654
 Alpha virt. eigenvalues --    1.70132   1.71381   1.72652   1.72910   1.75754
 Alpha virt. eigenvalues --    1.75862   1.77481   1.78128   1.79143   1.79715
 Alpha virt. eigenvalues --    1.79840   1.80090   1.84518   1.92440   1.95569
 Alpha virt. eigenvalues --    1.97095   2.01902   2.06064   2.06248   2.09101
 Alpha virt. eigenvalues --    2.14786   2.16689   2.16747   2.17797   2.19001
 Alpha virt. eigenvalues --    2.19097   2.23271   2.23271   2.25798   2.28385
 Alpha virt. eigenvalues --    2.29056   2.33190   2.33333   2.33824   2.37074
 Alpha virt. eigenvalues --    2.39202   2.40200   2.41980   2.42764   2.46139
 Alpha virt. eigenvalues --    2.47729   2.48235   2.49082   2.49963   2.51169
 Alpha virt. eigenvalues --    2.51538   2.51810   2.56212   2.56983   2.60257
 Alpha virt. eigenvalues --    2.63768   2.64219   2.65100   2.65728   2.66729
 Alpha virt. eigenvalues --    2.70479   2.76362   2.78710   2.81098   2.82388
 Alpha virt. eigenvalues --    2.85305   2.89687   2.94035   2.94270   2.95579
 Alpha virt. eigenvalues --    2.97559   3.01921   3.02616   3.04180   3.09565
 Alpha virt. eigenvalues --    3.10578   3.12355   3.12406   3.13056   3.14107
 Alpha virt. eigenvalues --    3.18374   3.18760   3.26535   3.28187   3.28993
 Alpha virt. eigenvalues --    3.38027   3.46542   3.47537   3.82694   3.83322
 Alpha virt. eigenvalues --    4.20617   4.37358   4.52453   4.53278   4.53886
 Alpha virt. eigenvalues --    4.55090   4.56580   4.62334   4.69161   4.75512
 Alpha virt. eigenvalues --    4.79921   4.85371   4.90638   5.09172   5.17848
 Alpha virt. eigenvalues --    5.17921
          Condensed to atoms (all electrons):
               1          2          3          4          5          6
     1  O    8.477725   0.259763  -0.060211   0.003237   0.002017  -0.000002
     2  H    0.259763   0.268047   0.005867  -0.000227  -0.000249  -0.000007
     3  C   -0.060211   0.005867   4.771704   0.427971   0.320565  -0.037992
     4  H    0.003237  -0.000227   0.427971   0.513891  -0.067712   0.004429
     5  C    0.002017  -0.000249   0.320565  -0.067712   4.977648   0.540869
     6  C   -0.000002  -0.000007  -0.037992   0.004429   0.540869   4.967263
     7  C    0.000002  -0.000000   0.001856   0.000016  -0.045128   0.535243
     8  C    0.000005  -0.000000   0.000079  -0.000013  -0.030224  -0.050337
     9  C   -0.000058  -0.000001   0.002492   0.000241  -0.045040  -0.034218
    10  C    0.001895  -0.000027  -0.039803  -0.001189   0.549887  -0.045457
    11  C    0.205478  -0.019460   0.366556  -0.049256  -0.050086  -0.006245
    12  C   -0.051004   0.000864  -0.050086   0.006921  -0.016952   0.002375
    13  C   -0.001647   0.001286  -0.006245  -0.000081   0.002375   0.001863
    14  C    0.000429  -0.000094  -0.000095   0.000000   0.000029  -0.000025
    15  C   -0.000004  -0.000011   0.000010   0.000000   0.000010  -0.000027
    16  C   -0.000042  -0.000017  -0.000051   0.000000   0.000012  -0.000055
    17  C    0.001964   0.000135  -0.001924  -0.000015   0.000256  -0.000091
    18  O    0.001046  -0.000080   0.205478  -0.032495  -0.051004  -0.001647
    19  H   -0.000080   0.000005  -0.019460  -0.003735   0.000864   0.001286
    20  H    0.000009  -0.000000  -0.003858   0.000187  -0.032102   0.380380
    21  H    0.000000   0.000000  -0.000086   0.000002   0.002195  -0.029568
    22  H    0.000000  -0.000000   0.000005  -0.000000   0.000161   0.002494
    23  H   -0.000003   0.000000  -0.000078  -0.000004   0.002118   0.000121
    24  H    0.002188  -0.000029  -0.002140   0.002422  -0.032303   0.002894
    25  H   -0.032495  -0.003735  -0.049256  -0.005773   0.006920  -0.000081
    26  H    0.007145  -0.000334  -0.000475   0.000006   0.001034  -0.000161
    27  H    0.000000   0.000001   0.000001  -0.000000  -0.000004  -0.000002
    28  H   -0.000000  -0.000000   0.000000   0.000000  -0.000000   0.000000
    29  H    0.000000   0.000000   0.000002  -0.000000   0.000000  -0.000000
    30  H    0.000013  -0.000005  -0.000185   0.000008   0.000060  -0.000006
               7          8          9         10         11         12
     1  O    0.000002   0.000005  -0.000058   0.001895   0.205478  -0.051004
     2  H   -0.000000  -0.000000  -0.000001  -0.000027  -0.019460   0.000864
     3  C    0.001856   0.000079   0.002492  -0.039803   0.366556  -0.050086
     4  H    0.000016  -0.000013   0.000241  -0.001189  -0.049256   0.006921
     5  C   -0.045128  -0.030224  -0.045040   0.549887  -0.050086  -0.016952
     6  C    0.535243  -0.050337  -0.034218  -0.045457  -0.006245   0.002375
     7  C    4.947055   0.546813  -0.049806  -0.034530  -0.000095   0.000029
     8  C    0.546813   4.939007   0.547699  -0.051226   0.000010   0.000010
     9  C   -0.049806   0.547699   4.941435   0.539676  -0.000051   0.000012
    10  C   -0.034530  -0.051226   0.539676   4.960749  -0.001924   0.000256
    11  C   -0.000095   0.000010  -0.000051  -0.001924   4.771705   0.320565
    12  C    0.000029   0.000010   0.000012   0.000256   0.320565   4.977648
    13  C   -0.000025  -0.000027  -0.000055  -0.000091  -0.037992   0.540869
    14  C   -0.000052  -0.000003   0.000000   0.000012   0.001856  -0.045128
    15  C   -0.000003   0.000000   0.000000   0.000001   0.000079  -0.030225
    16  C    0.000000   0.000000  -0.000000   0.000000   0.002492  -0.045040
    17  C    0.000012   0.000001   0.000000  -0.000017  -0.039803   0.549887
    18  O    0.000429  -0.000004  -0.000042   0.001964  -0.060211   0.002017
    19  H   -0.000094  -0.000011  -0.000017   0.000135   0.005867  -0.000249
    20  H   -0.027560   0.002571   0.000026   0.002998  -0.000475   0.001034
    21  H    0.384647  -0.029440   0.002554   0.000172   0.000001  -0.000004
    22  H   -0.029294   0.384123  -0.029333   0.002507   0.000000  -0.000000
    23  H    0.002590  -0.029393   0.383995  -0.028726   0.000002   0.000000
    24  H    0.000060   0.002544  -0.028561   0.382374  -0.000185   0.000060
    25  H    0.000000   0.000000   0.000000  -0.000015   0.427971  -0.067712
    26  H   -0.000084   0.000007   0.000130   0.000913  -0.003858  -0.032102
    27  H    0.000003   0.000000  -0.000000  -0.000001  -0.000086   0.002195
    28  H   -0.000000  -0.000000   0.000000   0.000000   0.000005   0.000161
    29  H   -0.000000  -0.000000  -0.000000  -0.000000  -0.000078   0.002118
    30  H    0.000000   0.000000   0.000000  -0.000000  -0.002140  -0.032303
              13         14         15         16         17         18
     1  O   -0.001647   0.000429  -0.000004  -0.000042   0.001964   0.001046
     2  H    0.001286  -0.000094  -0.000011  -0.000017   0.000135  -0.000080
     3  C   -0.006245  -0.000095   0.000010  -0.000051  -0.001924   0.205478
     4  H   -0.000081   0.000000   0.000000   0.000000  -0.000015  -0.032495
     5  C    0.002375   0.000029   0.000010   0.000012   0.000256  -0.051004
     6  C    0.001863  -0.000025  -0.000027  -0.000055  -0.000091  -0.001647
     7  C   -0.000025  -0.000052  -0.000003   0.000000   0.000012   0.000429
     8  C   -0.000027  -0.000003   0.000000   0.000000   0.000001  -0.000004
     9  C   -0.000055   0.000000   0.000000  -0.000000   0.000000  -0.000042
    10  C   -0.000091   0.000012   0.000001   0.000000  -0.000017   0.001964
    11  C   -0.037992   0.001856   0.000079   0.002492  -0.039803  -0.060211
    12  C    0.540869  -0.045128  -0.030225  -0.045040   0.549887   0.002017
    13  C    4.967263   0.535243  -0.050337  -0.034218  -0.045457  -0.000002
    14  C    0.535243   4.947056   0.546813  -0.049806  -0.034530   0.000002
    15  C   -0.050337   0.546813   4.939007   0.547700  -0.051226   0.000005
    16  C   -0.034218  -0.049806   0.547700   4.941435   0.539675  -0.000058
    17  C   -0.045457  -0.034530  -0.051226   0.539675   4.960749   0.001895
    18  O   -0.000002   0.000002   0.000005  -0.000058   0.001895   8.477725
    19  H   -0.000007  -0.000000  -0.000000  -0.000001  -0.000027   0.259763
    20  H   -0.000161  -0.000084   0.000007   0.000130   0.000913   0.007145
    21  H   -0.000002   0.000003   0.000000  -0.000000  -0.000001   0.000000
    22  H    0.000000  -0.000000  -0.000000   0.000000   0.000000  -0.000000
    23  H   -0.000000  -0.000000  -0.000000  -0.000000  -0.000000   0.000000
    24  H   -0.000006   0.000000   0.000000   0.000000  -0.000000   0.000013
    25  H    0.004429   0.000016  -0.000013   0.000241  -0.001189   0.003237
    26  H    0.380380  -0.027560   0.002571   0.000026   0.002998   0.000009
    27  H   -0.029568   0.384646  -0.029440   0.002554   0.000172   0.000000
    28  H    0.002494  -0.029294   0.384124  -0.029333   0.002507   0.000000
    29  H    0.000121   0.002590  -0.029393   0.383995  -0.028726  -0.000003
    30  H    0.002894   0.000060   0.002544  -0.028561   0.382374   0.002188
              19         20         21         22         23         24
     1  O   -0.000080   0.000009   0.000000   0.000000  -0.000003   0.002188
     2  H    0.000005  -0.000000   0.000000  -0.000000   0.000000  -0.000029
     3  C   -0.019460  -0.003858  -0.000086   0.000005  -0.000078  -0.002140
     4  H   -0.003735   0.000187   0.000002  -0.000000  -0.000004   0.002422
     5  C    0.000864  -0.032102   0.002195   0.000161   0.002118  -0.032303
     6  C    0.001286   0.380380  -0.029568   0.002494   0.000121   0.002894
     7  C   -0.000094  -0.027560   0.384647  -0.029294   0.002590   0.000060
     8  C   -0.000011   0.002571  -0.029440   0.384123  -0.029393   0.002544
     9  C   -0.000017   0.000026   0.002554  -0.029333   0.383995  -0.028561
    10  C    0.000135   0.002998   0.000172   0.002507  -0.028726   0.382374
    11  C    0.005867  -0.000475   0.000001   0.000000   0.000002  -0.000185
    12  C   -0.000249   0.001034  -0.000004  -0.000000   0.000000   0.000060
    13  C   -0.000007  -0.000161  -0.000002   0.000000  -0.000000  -0.000006
    14  C   -0.000000  -0.000084   0.000003  -0.000000  -0.000000   0.000000
    15  C   -0.000000   0.000007   0.000000  -0.000000  -0.000000   0.000000
    16  C   -0.000001   0.000130  -0.000000   0.000000  -0.000000   0.000000
    17  C   -0.000027   0.000913  -0.000001   0.000000  -0.000000  -0.000000
    18  O    0.259763   0.007145   0.000000  -0.000000   0.000000   0.000013
    19  H    0.268047  -0.000334   0.000001  -0.000000   0.000000  -0.000005
    20  H   -0.000334   0.437050  -0.001455  -0.000096   0.000009  -0.000096
    21  H    0.000001  -0.001455   0.440591  -0.001415  -0.000099   0.000009
    22  H   -0.000000  -0.000096  -0.001415   0.440266  -0.001410  -0.000097
    23  H    0.000000   0.000009  -0.000099  -0.001410   0.439968  -0.001496
    24  H   -0.000005  -0.000096   0.000009  -0.000097  -0.001496   0.438505
    25  H   -0.000227   0.000006  -0.000000   0.000000  -0.000000   0.000008
    26  H   -0.000000   0.000010   0.000001  -0.000000  -0.000000   0.000012
    27  H    0.000000   0.000001  -0.000000   0.000000   0.000000  -0.000000
    28  H   -0.000000  -0.000000   0.000000   0.000000   0.000000   0.000000
    29  H    0.000000  -0.000000   0.000000   0.000000   0.000000  -0.000000
    30  H   -0.000029   0.000012  -0.000000   0.000000  -0.000000   0.000000
              25         26         27         28         29         30
     1  O   -0.032495   0.007145   0.000000  -0.000000   0.000000   0.000013
     2  H   -0.003735  -0.000334   0.000001  -0.000000   0.000000  -0.000005
     3  C   -0.049256  -0.000475   0.000001   0.000000   0.000002  -0.000185
     4  H   -0.005773   0.000006  -0.000000   0.000000  -0.000000   0.000008
     5  C    0.006920   0.001034  -0.000004  -0.000000   0.000000   0.000060
     6  C   -0.000081  -0.000161  -0.000002   0.000000  -0.000000  -0.000006
     7  C    0.000000  -0.000084   0.000003  -0.000000  -0.000000   0.000000
     8  C    0.000000   0.000007   0.000000  -0.000000  -0.000000   0.000000
     9  C    0.000000   0.000130  -0.000000   0.000000  -0.000000   0.000000
    10  C   -0.000015   0.000913  -0.000001   0.000000  -0.000000  -0.000000
    11  C    0.427971  -0.003858  -0.000086   0.000005  -0.000078  -0.002140
    12  C   -0.067712  -0.032102   0.002195   0.000161   0.002118  -0.032303
    13  C    0.004429   0.380380  -0.029568   0.002494   0.000121   0.002894
    14  C    0.000016  -0.027560   0.384646  -0.029294   0.002590   0.000060
    15  C   -0.000013   0.002571  -0.029440   0.384124  -0.029393   0.002544
    16  C    0.000241   0.000026   0.002554  -0.029333   0.383995  -0.028561
    17  C   -0.001189   0.002998   0.000172   0.002507  -0.028726   0.382374
    18  O    0.003237   0.000009   0.000000   0.000000  -0.000003   0.002188
    19  H   -0.000227  -0.000000   0.000000  -0.000000   0.000000  -0.000029
    20  H    0.000006   0.000010   0.000001  -0.000000  -0.000000   0.000012
    21  H   -0.000000   0.000001  -0.000000   0.000000   0.000000  -0.000000
    22  H    0.000000  -0.000000   0.000000   0.000000   0.000000   0.000000
    23  H   -0.000000  -0.000000   0.000000   0.000000   0.000000  -0.000000
    24  H    0.000008   0.000012  -0.000000   0.000000  -0.000000   0.000000
    25  H    0.513892   0.000187   0.000002  -0.000000  -0.000004   0.002422
    26  H    0.000187   0.437050  -0.001455  -0.000096   0.000009  -0.000096
    27  H    0.000002  -0.001455   0.440591  -0.001415  -0.000099   0.000009
    28  H   -0.000000  -0.000096  -0.001415   0.440266  -0.001410  -0.000097
    29  H   -0.000004   0.000009  -0.000099  -0.001410   0.439967  -0.001496
    30  H    0.002422  -0.000096   0.000009  -0.000097  -0.001496   0.438505
 Mulliken charges:
               1
     1  O   -0.817370
     2  H    0.488305
     3  C    0.169358
     4  H    0.201169
     5  C   -0.036218
     6  C   -0.233296
     7  C   -0.232087
     8  C   -0.232193
     9  C   -0.231083
    10  C   -0.240533
    11  C    0.169358
    12  C   -0.036218
    13  C   -0.233296
    14  C   -0.232087
    15  C   -0.232193
    16  C   -0.231083
    17  C   -0.240533
    18  O   -0.817370
    19  H    0.488305
    20  H    0.233733
    21  H    0.231893
    22  H    0.232089
    23  H    0.232406
    24  H    0.233828
    25  H    0.201168
    26  H    0.233733
    27  H    0.231893
    28  H    0.232089
    29  H    0.232406
    30  H    0.233828
 Sum of Mulliken charges =  -0.00000
 Mulliken charges with hydrogens summed into heavy atoms:
               1
     1  O   -0.329064
     3  C    0.370527
     5  C   -0.036218
     6  C    0.000436
     7  C   -0.000194
     8  C   -0.000104
     9  C    0.001323
    10  C   -0.006705
    11  C    0.370526
    12  C   -0.036218
    13  C    0.000436
    14  C   -0.000194
    15  C   -0.000104
    16  C    0.001323
    17  C   -0.006705
    18  O   -0.329065
 DipInt: DoE/N= T F RetVal/Mat= T F Init=T NMatP=  1 IDeriv=0 Min/MaxMlt=  0  4
 Entering OneElI...
 OneElI was handed   104671112 working-precision words.
 Multipole integrals L=0 to 4 MinM= 0 MaxM= 0.
 Requested accuracy = 0.1000D-12
 ShPair: Thresh= 1.00D-13 NBox=     0 BxSize= 0.00D+00 RnKept= 1.71D+01
         NSMCal=                 4278 NSMKep=                3725
 PrmmSu-InSpLW:  IPartL=    0 NPrtUS=    1 NPrtUL=    1 DoSpLW=F IThBeg=    0 IThEnd=    0 NThAct=    1.
 PrSmSu:  IncTry=   512 NBBP=           3725 NTPThr=   100 NPartT=    1 Incr=          37 LDynOK=F GPUOK=F.
 PrsmSu:  NPrtUS=   1 ThrOK=F IAlg=2 LenDen=           0 ISkipM=0 DoSpLW=F IThBeg=    0 IThEnd=    0.
 Prism:   IPart=     0 DynPar=F LinDyn=F Incr=          37.
 PRISM was handed   104347496 working-precision words and  3725 shell-pairs
 IPart=  0 NShTot=        3725 NBatch=          66 AvBLen=        56.4
 PrsmSu-ThDecC:  IPartSL=    0    0 NPrtUSL=    1    1 IThBeg=    0 IThEnd=    0 CPU=   -1 GPU=   -1 NThAct=    1.
 PrSmSu:  NxtVal=             38.
 Electronic moments (au):
       -114.00000000          0.00000040         -0.08374645         -0.00000072
      -2108.06454638       -850.22975753       -493.28559543          0.00000984
          0.84828212          0.00001326          0.00116402       -127.34046513
         -0.00065306          0.00011825      -3130.94527427          0.00020364
         -0.00035513        440.05351086          0.00042414       -340.96371696
     -77438.16485593     -12391.10030561      -5286.45143620         -0.00013886
       6833.80108993         -0.00078196         -0.00087104       -406.35956154
          0.00133298     -14364.33114472      -5689.18340555      -4337.97878359
         -0.00029108      -1667.78423123          0.00021518
 Electronic spatial extent (au):  <R**2>=           3451.5799
 DipInt: DoE/N= F T RetVal/Mat= T F Init=T NMatP=  1 IDeriv=0 Min/MaxMlt=  0  4
 Nuclear    moments (au):
        114.00000000         -0.00000000          0.00000000         -0.00000000
       2045.22810387        787.64047670        427.35467963          0.00000000
         -0.00004358          0.00001404         -0.00121901        116.66969410
          0.00071201         -0.00015753       3143.60873382         -0.00015843
          0.00038896       -455.91307178         -0.00057660        329.31128194
      69957.61819603       9615.85250981       3837.83702379          0.00033453
      -7251.23479969          0.00112906          0.00170535        501.15482564
         -0.00086000      12838.53024012       4179.98216101       3646.62451031
          0.00042740       1778.43139497         -0.00011047
 Total      moments (au):
         -0.00000000          0.00000040         -0.08374645         -0.00000072
        -62.83644251        -62.58928083        -65.93091580          0.00000984
          0.84823854          0.00002730         -0.00005499        -10.67077102
          0.00005894         -0.00003928         12.66345955          0.00004521
          0.00003382        -15.85956093         -0.00015245        -11.65243502
      -7480.54665989      -2775.24779580      -1448.61441241          0.00019567
       -417.43370976          0.00034710          0.00083431         94.79526410
          0.00047298      -1525.80090460      -1509.20124454       -691.35427328
          0.00013632        110.64716374          0.00010471
 Traceless Quadrup. (au):
          0.94910387          1.19626555         -2.14536942          0.00000984
          0.84823854          0.00002730
 Charge=             -0.0000 electrons
 Dipole moment (field-independent basis, Debye):
    X=              0.0000    Y=             -0.2129    Z=             -0.0000  Tot=              0.2129
 Quadrupole moment (field-independent basis, Debye-Ang):
   XX=            -84.5172   YY=            -84.1847   ZZ=            -88.6793
   XY=              0.0000   XZ=              1.1409   YZ=              0.0000
 Traceless Quadrupole moment (field-independent basis, Debye-Ang):
   XX=              1.2766   YY=              1.6090   ZZ=             -2.8856
   XY=              0.0000   XZ=              1.1409   YZ=              0.0000
 Octapole moment (field-independent basis, Debye-Ang**2):
  XXX=             -0.0000  YYY=             -7.5950  ZZZ=              0.0000  XYY=             -0.0000
  XXY=              9.0134  XXZ=              0.0000  XZZ=              0.0000  YZZ=            -11.2882
  YYZ=             -0.0001  XYZ=             -8.2938
 Hexadecapole moment (field-independent basis, Debye-Ang**3):
 XXXX=          -2817.5326 YYYY=          -1045.2914 ZZZZ=           -545.6177 XXXY=              0.0001
 XXXZ=           -157.2256 YYYX=              0.0001 YYYZ=              0.0003 ZZZX=             35.7044
 ZZZY=              0.0002 XXYY=           -574.6898 XXZZ=           -568.4376 YYZZ=           -260.3972
 XXYZ=              0.0001 YYXZ=             41.6750 ZZXY=              0.0000
 N-N= 1.064343416046D+03 E-N=-3.738952778753D+03  KE= 6.872241310480D+02
 Entering OneElI...
 OneElI was handed   104706110 working-precision words.
 Calculate electrostatic properties
    NBasis =   268  MinDer = 0  MaxDer = 0
    NGrid  =    30  NMatD  =   1
 Requested accuracy = 0.1000D-12
 PrtBox:  NBox=     1 Levels=  1 BoxLen=   29.89 SMaxX=       16.16
          Shift=            8.077818            4.771500            4.502146
 Box      1 Number                   0 centers from      1 to     92:
 ShPair: Thresh= 1.00D-13 NBox=     1 BxSize= 2.99D+01 RnKept= 1.71D+01
         NSMCal=                 4278 NSMKep=                3414
 PrmmSu-InSpLW:  IPartL=    0 NPrtUS=    1 NPrtUL=    1 DoSpLW=F IThBeg=    0 IThEnd=    0 NThAct=    1.
 PrSmSu:  IncTry=   512 NBBP=         102420 NTPThr=   100 NPartT=    1 Incr=         512 LDynOK=F GPUOK=F.
 PrsmSu:  NPrtUS=   1 ThrOK=F IAlg=2 LenDen=           0 ISkipM=0 DoSpLW=F IThBeg=    0 IThEnd=    0.
 Prism:   IPart=     0 DynPar=F LinDyn=F Incr=         512.
 PRISM was handed   104410773 working-precision words and  3414 shell-pairs
 IPart=  0 NShTot=      102420 NBatch=        3414 AvBLen=        30.0
 PrsmSu-ThDecC:  IPartSL=    0    0 NPrtUSL=    1    1 IThBeg=    0 IThEnd=    0 CPU=   -1 GPU=   -1 NThAct=    1.
 PrSmSu:  NxtVal=            513.
 --------------------------------------------------------
       Center         ----      EFG at Nuclei      ----
                      3XX-RR        3YY-RR        3ZZ-RR
 --------------------------------------------------------
     1   Atom       -0.117860      1.738361     -1.620501
     2   Atom       -0.197553      0.273731     -0.076178
     3   Atom        0.105277      0.181410     -0.286687
     4   Atom        0.033385     -0.155392      0.122007
     5   Atom       -0.018885      0.074517     -0.055632
     6   Atom       -0.015554      0.096236     -0.080681
     7   Atom        0.002355      0.083137     -0.085493
     8   Atom       -0.012465      0.088448     -0.075984
     9   Atom       -0.019951      0.115240     -0.095289
    10   Atom       -0.002448      0.096886     -0.094439
    11   Atom        0.105277      0.181409     -0.286686
    12   Atom       -0.018885      0.074517     -0.055632
    13   Atom       -0.015554      0.096236     -0.080682
    14   Atom        0.002356      0.083137     -0.085493
    15   Atom       -0.012464      0.088449     -0.075984
    16   Atom       -0.019950      0.115240     -0.095289
    17   Atom       -0.002448      0.096886     -0.094439
    18   Atom       -0.117860      1.738364     -1.620504
    19   Atom       -0.197553      0.273732     -0.076179
    20   Atom       -0.100290      0.153837     -0.053547
    21   Atom        0.152700     -0.165143      0.012443
    22   Atom       -0.029692     -0.127602      0.157294
    23   Atom       -0.107884      0.152204     -0.044320
    24   Atom        0.152516     -0.171956      0.019440
    25   Atom        0.033384     -0.155391      0.122006
    26   Atom       -0.100290      0.153836     -0.053546
    27   Atom        0.152699     -0.165143      0.012444
    28   Atom       -0.029692     -0.127603      0.157294
    29   Atom       -0.107885      0.152204     -0.044320
    30   Atom        0.152516     -0.171956      0.019440
 --------------------------------------------------------
                        XY            XZ            YZ
 --------------------------------------------------------
     1   Atom       -0.092077     -0.259218     -0.373310
     2   Atom       -0.049625     -0.349025     -0.045889
     3   Atom       -0.050819      0.146021      0.050795
     4   Atom        0.187984      0.055112     -0.083466
     5   Atom        0.084854     -0.229650      0.147473
     6   Atom        0.137763     -0.214097      0.144053
     7   Atom        0.131388     -0.228404      0.133050
     8   Atom        0.107803     -0.228764      0.155807
     9   Atom        0.127150     -0.210998      0.150629
    10   Atom        0.130465     -0.220589      0.123417
    11   Atom        0.050819      0.146021     -0.050795
    12   Atom       -0.084854     -0.229650     -0.147472
    13   Atom       -0.137764     -0.214096     -0.144053
    14   Atom       -0.131388     -0.228403     -0.133049
    15   Atom       -0.107803     -0.228764     -0.155807
    16   Atom       -0.127149     -0.210998     -0.150629
    17   Atom       -0.130465     -0.220589     -0.123417
    18   Atom        0.092068     -0.259220      0.373300
    19   Atom        0.049622     -0.349025      0.045887
    20   Atom        0.019560      0.246639     -0.026483
    21   Atom        0.041725      0.042472     -0.224937
    22   Atom       -0.236363      0.041294      0.031974
    23   Atom        0.016495      0.245302     -0.025442
    24   Atom        0.046390      0.048223     -0.219243
    25   Atom       -0.187983      0.055112      0.083466
    26   Atom       -0.019560      0.246638      0.026483
    27   Atom       -0.041725      0.042472      0.224936
    28   Atom        0.236363      0.041294     -0.031974
    29   Atom       -0.016496      0.245303      0.025442
    30   Atom       -0.046390      0.048223      0.219243
 --------------------------------------------------------


 ---------------------------------------------------------------------------------
              Nuclear Quadrupole Coupling Constant in Principal Axis System
 ---------------------------------------------------------------------------------

       Atom             a.u.   MegaHertz   Gauss  10(-4) cm-1        Axes


 ---------------------------------------------------------------------------------

 No NMR shielding tensors so no spin-rotation constants.
 Leave Link  601 at Mon Feb  5 11:23:28 2024, MaxMem=   104857600 cpu:               0.2 elap:               0.2
 FitSet:  NAtFit=    30 NAtPot=    30 NAtFrz=     0 MDM=    34 TotChg=   0.00000
 Merz-Kollman atomic radii used.
 Atom Element Radius
    1     8    1.40
    2     1    1.20
    3     6    1.50
    4     1    1.20
    5     6    1.50
    6     6    1.50
    7     6    1.50
    8     6    1.50
    9     6    1.50
   10     6    1.50
   11     6    1.50
   12     6    1.50
   13     6    1.50
   14     6    1.50
   15     6    1.50
   16     6    1.50
   17     6    1.50
   18     8    1.40
   19     1    1.20
   20     1    1.20
   21     1    1.20
   22     1    1.20
   23     1    1.20
   24     1    1.20
   25     1    1.20
   26     1    1.20
   27     1    1.20
   28     1    1.20
   29     1    1.20
   30     1    1.20
 Generate VDW surfaces: Layer= 4 Dens= 6 Start= 1.400 Inc= 0.200

 **********************************************************************

            Electrostatic Properties Using The SCF Density.

 **********************************************************************

       Atomic Center    1 is at  -0.105774 -1.740690 -1.777295
       Atomic Center    2 is at  -0.834841 -1.823034 -2.382433
       Atomic Center    3 is at   0.613009 -1.627010  0.467006
       Atomic Center    4 is at   1.166997 -2.524969  0.216322
       Atomic Center    5 is at   1.548779 -0.440410  0.313444
       Atomic Center    6 is at   1.397913  0.709936  1.081586
       Atomic Center    7 is at   2.270630  1.777733  0.933896
       Atomic Center    8 is at   3.306802  1.711604  0.015114
       Atomic Center    9 is at   3.468497  0.567408 -0.751510
       Atomic Center   10 is at   2.598305 -0.500868 -0.598044
       Atomic Center   11 is at  -0.613009 -1.627010 -0.467006
       Atomic Center   12 is at  -1.548779 -0.440410 -0.313444
       Atomic Center   13 is at  -1.397913  0.709936 -1.081586
       Atomic Center   14 is at  -2.270629  1.777733 -0.933896
       Atomic Center   15 is at  -3.306802  1.711604 -0.015115
       Atomic Center   16 is at  -3.468498  0.567409  0.751510
       Atomic Center   17 is at  -2.598306 -0.500868  0.598043
       Atomic Center   18 is at   0.105774 -1.740689  1.777296
       Atomic Center   19 is at   0.834841 -1.823028  2.382435
       Atomic Center   20 is at   0.602961  0.773106  1.800689
       Atomic Center   21 is at   2.140754  2.658565  1.537241
       Atomic Center   22 is at   3.984424  2.539037 -0.097391
       Atomic Center   23 is at   4.274596  0.501865 -1.460431
       Atomic Center   24 is at   2.740881 -1.389422 -1.186969
       Atomic Center   25 is at  -1.166998 -2.524969 -0.216321
       Atomic Center   26 is at  -0.602960  0.773106 -1.800689
       Atomic Center   27 is at  -2.140753  2.658566 -1.537241
       Atomic Center   28 is at  -3.984423  2.539037  0.097390
       Atomic Center   29 is at  -4.274597  0.501866  1.460430
       Atomic Center   30 is at  -2.740882 -1.389422  1.186968
      ESP Fit Center   31 is at  -0.105774 -3.604761 -1.171622
      ESP Fit Center   32 is at   0.309021 -3.558025 -1.171622
      ESP Fit Center   33 is at   0.703016 -3.420160 -1.171622
      ESP Fit Center   34 is at  -0.827271 -3.551510 -1.572419
      ESP Fit Center   35 is at  -0.421130 -3.664274 -1.572419
      ESP Fit Center   36 is at  -0.000243 -3.687094 -1.572419
      ESP Fit Center   37 is at   0.415709 -3.618902 -1.572419
      ESP Fit Center   38 is at   0.807277 -3.462887 -1.572419
      ESP Fit Center   39 is at   1.156152 -3.226344 -1.572419
      ESP Fit Center   40 is at   1.446021 -2.920334 -1.572419
      ESP Fit Center   41 is at  -0.827271 -3.551510 -1.982171
      ESP Fit Center   42 is at  -0.421130 -3.664274 -1.982171
      ESP Fit Center   43 is at  -0.000243 -3.687094 -1.982171
      ESP Fit Center   44 is at   0.415709 -3.618902 -1.982171
      ESP Fit Center   45 is at   0.807277 -3.462887 -1.982171
      ESP Fit Center   46 is at   1.156152 -3.226344 -1.982171
      ESP Fit Center   47 is at   1.446021 -2.920334 -1.982171
      ESP Fit Center   48 is at   1.663329 -2.559164 -1.982171
      ESP Fit Center   49 is at   1.573696 -0.931900 -2.382968
      ESP Fit Center   50 is at   1.351615 -0.578461 -2.382968
      ESP Fit Center   51 is at   1.056455 -0.283301 -2.382968
      ESP Fit Center   52 is at  -0.520569 -3.558025 -2.382968
      ESP Fit Center   53 is at  -0.105774 -3.604761 -2.382968
      ESP Fit Center   54 is at   0.309021 -3.558025 -2.382968
      ESP Fit Center   55 is at   0.703016 -3.420160 -2.382968
      ESP Fit Center   56 is at   1.056455 -3.198079 -2.382968
      ESP Fit Center   57 is at   1.351615 -2.902919 -2.382968
      ESP Fit Center   58 is at   1.573696 -2.549480 -2.382968
      ESP Fit Center   59 is at   1.711561 -2.155485 -2.382968
      ESP Fit Center   60 is at   1.591636 -1.740690 -2.757295
      ESP Fit Center   61 is at   1.538309 -1.318561 -2.757295
      ESP Fit Center   62 is at   1.381678 -0.922957 -2.757295
      ESP Fit Center   63 is at   1.131585 -0.578733 -2.757295
      ESP Fit Center   64 is at   0.803744 -0.307519 -2.757295
      ESP Fit Center   65 is at   0.000807 -3.434750 -2.757295
      ESP Fit Center   66 is at   0.418755 -3.355023 -2.757295
      ESP Fit Center   67 is at   0.803744 -3.173860 -2.757295
      ESP Fit Center   68 is at   1.131585 -2.902647 -2.757295
      ESP Fit Center   69 is at   1.381678 -2.558423 -2.757295
      ESP Fit Center   70 is at   1.538309 -2.162819 -2.757295
      ESP Fit Center   71 is at   1.350790 -1.740690 -3.088791
      ESP Fit Center   72 is at   1.291789 -1.330328 -3.088791
      ESP Fit Center   73 is at   1.119566 -0.953212 -3.088791
      ESP Fit Center   74 is at   0.848073 -0.639892 -3.088791
      ESP Fit Center   75 is at   0.499305 -0.415753 -3.088791
      ESP Fit Center   76 is at   0.101517 -0.298952 -3.088791
      ESP Fit Center   77 is at  -0.313065 -0.298952 -3.088791
      ESP Fit Center   78 is at   0.101517 -3.182428 -3.088791
      ESP Fit Center   79 is at   0.499305 -3.065627 -3.088791
      ESP Fit Center   80 is at   0.848073 -2.841487 -3.088791
      ESP Fit Center   81 is at   1.119566 -2.528168 -3.088791
      ESP Fit Center   82 is at   1.291789 -2.151051 -3.088791
      ESP Fit Center   83 is at   1.046285 -1.740690 -3.362968
      ESP Fit Center   84 is at   0.968489 -1.324518 -3.362968
      ESP Fit Center   85 is at   0.745608 -0.964553 -3.362968
      ESP Fit Center   86 is at   0.407743 -0.709409 -3.362968
      ESP Fit Center   87 is at   0.000525 -0.593545 -3.362968
      ESP Fit Center   88 is at   0.407743 -2.771971 -3.362968
      ESP Fit Center   89 is at   0.745608 -2.516827 -3.362968
      ESP Fit Center   90 is at   0.968489 -2.156862 -3.362968
      ESP Fit Center   91 is at   0.691430 -1.740690 -3.567844
      ESP Fit Center   92 is at   0.584625 -1.342088 -3.567844
      ESP Fit Center   93 is at   0.292828 -1.050291 -3.567844
      ESP Fit Center   94 is at   0.292828 -2.431089 -3.567844
      ESP Fit Center   95 is at   0.584625 -2.139292 -3.567844
      ESP Fit Center   96 is at   0.301733 -1.740690 -3.694464
      ESP Fit Center   97 is at  -2.457596 -1.823034 -1.947617
      ESP Fit Center   98 is at  -2.402302 -2.243034 -1.947617
      ESP Fit Center   99 is at  -2.240188 -2.634412 -1.947617
      ESP Fit Center  100 is at  -1.982302 -2.970495 -1.947617
      ESP Fit Center  101 is at  -1.646219 -3.228381 -1.947617
      ESP Fit Center  102 is at  -1.254841 -3.390495 -1.947617
      ESP Fit Center  103 is at  -2.193989 -0.835555 -2.382433
      ESP Fit Center  104 is at  -2.396865 -1.204585 -2.382433
      ESP Fit Center  105 is at  -2.501594 -1.612474 -2.382433
      ESP Fit Center  106 is at  -2.501594 -2.033594 -2.382433
      ESP Fit Center  107 is at  -2.396865 -2.441483 -2.382433
      ESP Fit Center  108 is at  -2.193989 -2.810513 -2.382433
      ESP Fit Center  109 is at  -1.905713 -3.117496 -2.382433
      ESP Fit Center  110 is at  -1.550150 -3.343143 -2.382433
      ESP Fit Center  111 is at  -1.149642 -3.473277 -2.382433
      ESP Fit Center  112 is at  -0.729353 -3.499719 -2.382433
      ESP Fit Center  113 is at  -1.982302 -0.675573 -2.817249
      ESP Fit Center  114 is at  -2.240188 -1.011656 -2.817249
      ESP Fit Center  115 is at  -2.402302 -1.403034 -2.817249
      ESP Fit Center  116 is at  -2.457596 -1.823034 -2.817249
      ESP Fit Center  117 is at  -2.402302 -2.243034 -2.817249
      ESP Fit Center  118 is at  -2.240188 -2.634412 -2.817249
      ESP Fit Center  119 is at  -1.982302 -2.970495 -2.817249
      ESP Fit Center  120 is at  -1.646219 -3.228381 -2.817249
      ESP Fit Center  121 is at  -1.254841 -3.390495 -2.817249
      ESP Fit Center  122 is at  -0.834841 -3.445789 -2.817249
      ESP Fit Center  123 is at  -0.414841 -3.390495 -2.817249
      ESP Fit Center  124 is at  -0.726114 -0.372180 -3.222433
      ESP Fit Center  125 is at  -1.158592 -0.404589 -3.222433
      ESP Fit Center  126 is at  -1.562302 -0.563034 -3.222433
      ESP Fit Center  127 is at  -1.901375 -0.833435 -3.222433
      ESP Fit Center  128 is at  -2.145681 -1.191767 -3.222433
      ESP Fit Center  129 is at  -2.273513 -1.606189 -3.222433
      ESP Fit Center  130 is at  -2.273513 -2.039879 -3.222433
      ESP Fit Center  131 is at  -2.145681 -2.454301 -3.222433
      ESP Fit Center  132 is at  -1.901375 -2.812633 -3.222433
      ESP Fit Center  133 is at  -1.562302 -3.083034 -3.222433
      ESP Fit Center  134 is at  -1.158592 -3.241479 -3.222433
      ESP Fit Center  135 is at  -0.726114 -3.273888 -3.222433
      ESP Fit Center  136 is at  -0.303298 -3.177383 -3.222433
      ESP Fit Center  137 is at  -0.305331 -0.759634 -3.570372
      ESP Fit Center  138 is at  -0.725232 -0.640162 -3.570372
      ESP Fit Center  139 is at  -1.159936 -0.680443 -3.570372
      ESP Fit Center  140 is at  -1.550734 -0.875038 -3.570372
      ESP Fit Center  141 is at  -1.844847 -1.197664 -3.570372
      ESP Fit Center  142 is at  -2.002553 -1.604751 -3.570372
      ESP Fit Center  143 is at  -2.002553 -2.041317 -3.570372
      ESP Fit Center  144 is at  -1.844847 -2.448403 -3.570372
      ESP Fit Center  145 is at  -1.550734 -2.771030 -3.570372
      ESP Fit Center  146 is at  -1.159936 -2.965625 -3.570372
      ESP Fit Center  147 is at  -0.725232 -3.005906 -3.570372
      ESP Fit Center  148 is at  -0.305331 -2.886434 -3.570372
      ESP Fit Center  149 is at   0.043057 -2.623344 -3.570372
      ESP Fit Center  150 is at   0.005159 -1.823034 -3.837356
      ESP Fit Center  151 is at  -0.107380 -1.403034 -3.837356
      ESP Fit Center  152 is at  -0.414841 -1.095573 -3.837356
      ESP Fit Center  153 is at  -0.834841 -0.983034 -3.837356
      ESP Fit Center  154 is at  -1.254841 -1.095573 -3.837356
      ESP Fit Center  155 is at  -1.562302 -1.403034 -3.837356
      ESP Fit Center  156 is at  -1.674841 -1.823034 -3.837356
      ESP Fit Center  157 is at  -1.562302 -2.243034 -3.837356
      ESP Fit Center  158 is at  -1.254841 -2.550495 -3.837356
      ESP Fit Center  159 is at  -0.834841 -2.663034 -3.837356
      ESP Fit Center  160 is at  -0.414841 -2.550495 -3.837356
      ESP Fit Center  161 is at  -0.107380 -2.243034 -3.837356
      ESP Fit Center  162 is at  -0.400025 -1.823034 -4.005188
      ESP Fit Center  163 is at  -0.617433 -1.446472 -4.005188
      ESP Fit Center  164 is at  -1.052249 -1.446472 -4.005188
      ESP Fit Center  165 is at  -1.269657 -1.823034 -4.005188
      ESP Fit Center  166 is at  -1.052249 -2.199596 -4.005188
      ESP Fit Center  167 is at  -0.617433 -2.199596 -4.005188
      ESP Fit Center  168 is at  -0.834841 -1.823034 -4.062433
      ESP Fit Center  169 is at  -0.294048 -3.476172  0.876696
      ESP Fit Center  170 is at   1.586997 -3.252430  1.671245
      ESP Fit Center  171 is at   1.894458 -2.944969  1.671245
      ESP Fit Center  172 is at   2.354936 -2.524969  1.404261
      ESP Fit Center  173 is at   0.841902 -3.667560  1.404261
      ESP Fit Center  174 is at   1.276606 -3.707841  1.404261
      ESP Fit Center  175 is at   1.696507 -3.588369  1.404261
      ESP Fit Center  176 is at   2.044895 -3.325279  1.404261
      ESP Fit Center  177 is at   2.274718 -2.954102  1.404261
      ESP Fit Center  178 is at   2.621920 -2.524969  1.056322
      ESP Fit Center  179 is at   0.439536 -3.784969  1.056322
      ESP Fit Center  180 is at   0.843246 -3.943414  1.056322
      ESP Fit Center  181 is at   1.275724 -3.975823  1.056322
      ESP Fit Center  182 is at   1.698540 -3.879318  1.056322
      ESP Fit Center  183 is at   2.074127 -3.662473  1.056322
      ESP Fit Center  184 is at   2.369111 -3.344556  1.056322
      ESP Fit Center  185 is at   2.557282 -2.953815  1.056322
      ESP Fit Center  186 is at   2.789752 -2.524969  0.651138
      ESP Fit Center  187 is at   0.019536 -3.672430  0.651138
      ESP Fit Center  188 is at   0.355619 -3.930316  0.651138
      ESP Fit Center  189 is at   0.746997 -4.092430  0.651138
      ESP Fit Center  190 is at   1.166997 -4.147724  0.651138
      ESP Fit Center  191 is at   1.586997 -4.092430  0.651138
      ESP Fit Center  192 is at   1.978375 -3.930316  0.651138
      ESP Fit Center  193 is at   2.314458 -3.672430  0.651138
      ESP Fit Center  194 is at   2.572344 -3.336347  0.651138
      ESP Fit Center  195 is at   2.734458 -2.944969  0.651138
      ESP Fit Center  196 is at   2.846997 -2.524969  0.216322
      ESP Fit Center  197 is at   0.096125 -3.819431  0.216322
      ESP Fit Center  198 is at   0.451688 -4.045078  0.216322
      ESP Fit Center  199 is at   0.852196 -4.175212  0.216322
      ESP Fit Center  200 is at   1.272485 -4.201654  0.216322
      ESP Fit Center  201 is at   1.686146 -4.122744  0.216322
      ESP Fit Center  202 is at   2.067186 -3.943440  0.216322
      ESP Fit Center  203 is at   2.391664 -3.675008  0.216322
      ESP Fit Center  204 is at   2.639192 -3.334315  0.216322
      ESP Fit Center  205 is at   2.794217 -2.942768  0.216322
      ESP Fit Center  206 is at   0.355619 -3.930316 -0.218494
      ESP Fit Center  207 is at   0.746997 -4.092430 -0.218494
      ESP Fit Center  208 is at   1.166997 -4.147724 -0.218494
      ESP Fit Center  209 is at   1.586997 -4.092430 -0.218494
      ESP Fit Center  210 is at   1.978375 -3.930316 -0.218494
      ESP Fit Center  211 is at   2.314458 -3.672430 -0.218494
      ESP Fit Center  212 is at   2.572344 -3.336347 -0.218494
      ESP Fit Center  213 is at   2.734458 -2.944969 -0.218494
      ESP Fit Center  214 is at   0.439536 -3.784969 -0.623678
      ESP Fit Center  215 is at   0.843246 -3.943414 -0.623678
      ESP Fit Center  216 is at   1.275724 -3.975823 -0.623678
      ESP Fit Center  217 is at   1.698540 -3.879318 -0.623678
      ESP Fit Center  218 is at   2.074127 -3.662473 -0.623678
      ESP Fit Center  219 is at   2.369111 -3.344556 -0.623678
      ESP Fit Center  220 is at   0.451104 -3.472965 -0.971617
      ESP Fit Center  221 is at   0.841902 -3.667560 -0.971617
      ESP Fit Center  222 is at   1.276606 -3.707841 -0.971617
      ESP Fit Center  223 is at   1.696507 -3.588369 -0.971617
      ESP Fit Center  224 is at   2.044895 -3.325279 -0.971617
      ESP Fit Center  225 is at   1.166997 -3.364969 -1.238601
      ESP Fit Center  226 is at   1.586997 -3.252430 -1.238601
      ESP Fit Center  227 is at   1.894458 -2.944969 -1.238601
      ESP Fit Center  228 is at   2.244748 -0.842228  2.253591
      ESP Fit Center  229 is at   2.410979 -1.226409  2.059530
      ESP Fit Center  230 is at   2.636692 -0.861870  2.059530
      ESP Fit Center  231 is at   3.033703 -0.440410  1.798368
      ESP Fit Center  232 is at   2.521198 -1.562641  1.798368
      ESP Fit Center  233 is at   2.797977 -1.243221  1.798368
      ESP Fit Center  234 is at   2.973553 -0.858761  1.798368
      ESP Fit Center  235 is at   3.294865 -0.440410  1.480142
      ESP Fit Center  236 is at   2.540669 -1.877411  1.480142
      ESP Fit Center  237 is at   2.855743 -1.598279  1.480142
      ESP Fit Center  238 is at   3.094862 -1.251857  1.480142
      ESP Fit Center  239 is at   3.244127 -0.858276  1.480142
      ESP Fit Center  240 is at   2.804804 -1.919116  1.117079
      ESP Fit Center  241 is at   3.093317 -1.614537  1.117079
      ESP Fit Center  242 is at   1.807603  0.709936  3.141235
      ESP Fit Center  243 is at   1.602758  1.064738  3.141235
      ESP Fit Center  244 is at   1.602758  0.355134  3.141235
      ESP Fit Center  245 is at   2.201548  0.709936  3.021733
      ESP Fit Center  246 is at   2.093882  1.111754  3.021733
      ESP Fit Center  247 is at   1.799731  1.405905  3.021733
      ESP Fit Center  248 is at   1.397913 -0.093699  3.021733
      ESP Fit Center  249 is at   1.799731  0.013968  3.021733
      ESP Fit Center  250 is at   2.093882  0.308118  3.021733
      ESP Fit Center  251 is at   2.564611  0.709936  2.827672
      ESP Fit Center  252 is at   1.917955 -0.334449  2.827672
      ESP Fit Center  253 is at   2.260113 -0.076063  2.827672
      ESP Fit Center  254 is at   2.485826  0.288476  2.827672
      ESP Fit Center  255 is at   2.014773 -0.640799  2.566510
      ESP Fit Center  256 is at   2.370332 -0.412295  2.566510
      ESP Fit Center  257 is at   2.647111 -0.092875  2.566510
      ESP Fit Center  258 is at   2.822687  0.291585  2.566510
      ESP Fit Center  259 is at   2.389803 -0.727065  2.248284
      ESP Fit Center  260 is at   2.704877 -0.447933  2.248284
      ESP Fit Center  261 is at   2.943996 -0.101511  2.248284
      ESP Fit Center  262 is at   3.093261  0.292070  2.248284
      ESP Fit Center  263 is at   2.942451 -0.464191  1.885221
      ESP Fit Center  264 is at   3.158743 -0.104711  1.885221
      ESP Fit Center  265 is at   3.290644 -0.102299  1.491276
      ESP Fit Center  266 is at   0.231216  2.456022  1.081586
      ESP Fit Center  267 is at  -0.087011  2.194860  1.081586
      ESP Fit Center  268 is at   0.137190  2.338657  0.671896
      ESP Fit Center  269 is at  -0.164862  2.051535  0.671896
      ESP Fit Center  270 is at  -0.402934  1.709488  0.671896
      ESP Fit Center  271 is at   0.309128  2.315774  0.277951
      ESP Fit Center  272 is at  -0.010625  2.044174  0.277951
      ESP Fit Center  273 is at   0.406023  2.146937 -0.085111
      ESP Fit Center  274 is at   0.090949  1.867805 -0.085111
      ESP Fit Center  275 is at   0.425494  1.832167 -0.403338
      ESP Fit Center  276 is at   0.694821  1.640981 -0.664500
      ESP Fit Center  277 is at   0.996095  1.405905 -0.858561
      ESP Fit Center  278 is at   2.270630  1.777733  3.033896
      ESP Fit Center  279 is at   2.680320  1.777733  2.993545
      ESP Fit Center  280 is at   1.860940  1.777733  2.993545
      ESP Fit Center  281 is at   2.065785  1.422931  2.993545
      ESP Fit Center  282 is at   2.475475  1.422931  2.993545
      ESP Fit Center  283 is at   3.074265  1.777733  2.874043
      ESP Fit Center  284 is at   2.672448  1.081765  2.874043
      ESP Fit Center  285 is at   2.966599  1.375915  2.874043
      ESP Fit Center  286 is at   3.437328  1.777733  2.679982
      ESP Fit Center  287 is at   3.358543  2.199193  2.679982
      ESP Fit Center  288 is at   2.790672  0.733348  2.679982
      ESP Fit Center  289 is at   3.132830  0.991734  2.679982
      ESP Fit Center  290 is at   3.358543  1.356273  2.679982
      ESP Fit Center  291 is at   3.755554  1.777733  2.418820
      ESP Fit Center  292 is at   3.695404  2.196085  2.418820
      ESP Fit Center  293 is at   3.243049  0.655502  2.418820
      ESP Fit Center  294 is at   3.519828  0.974922  2.418820
      ESP Fit Center  295 is at   3.695404  1.359382  2.418820
      ESP Fit Center  296 is at   4.016716  1.777733  2.100594
      ESP Fit Center  297 is at   3.965978  2.195599  2.100594
      ESP Fit Center  298 is at   3.816713  2.589180  2.100594
      ESP Fit Center  299 is at   3.262520  0.340732  2.100594
      ESP Fit Center  300 is at   3.577594  0.619864  2.100594
      ESP Fit Center  301 is at   3.816713  0.966286  2.100594
      ESP Fit Center  302 is at   3.965978  1.359867  2.100594
      ESP Fit Center  303 is at   3.815168  2.951860  1.737531
      ESP Fit Center  304 is at   3.526655  0.299027  1.737531
      ESP Fit Center  305 is at   3.815168  0.603606  1.737531
      ESP Fit Center  306 is at   0.469783  2.777285  1.343586
      ESP Fit Center  307 is at   0.524544  2.944431  0.933896
      ESP Fit Center  308 is at   0.330483  2.581368  0.933896
      ESP Fit Center  309 is at   1.009907  3.406454  0.524206
      ESP Fit Center  310 is at   0.707855  3.119332  0.524206
      ESP Fit Center  311 is at   0.469783  2.777285  0.524206
      ESP Fit Center  312 is at   2.375667  3.715035  0.130261
      ESP Fit Center  313 is at   1.956749  3.692322  0.130261
      ESP Fit Center  314 is at   1.552508  3.580084  0.130261
      ESP Fit Center  315 is at   1.181845  3.383571  0.130261
      ESP Fit Center  316 is at   0.862092  3.111971  0.130261
      ESP Fit Center  317 is at   0.608201  2.777983  0.130261
      ESP Fit Center  318 is at   0.432044  2.397225  0.130261
      ESP Fit Center  319 is at   2.060163  3.511088 -0.232801
      ESP Fit Center  320 is at   1.651459  3.410352 -0.232801
      ESP Fit Center  321 is at   1.278740  3.214734 -0.232801
      ESP Fit Center  322 is at   0.963666  2.935602 -0.232801
      ESP Fit Center  323 is at   0.724548  2.589180 -0.232801
      ESP Fit Center  324 is at   0.575282  2.195599 -0.232801
      ESP Fit Center  325 is at   1.653770  3.128468 -0.551028
      ESP Fit Center  326 is at   1.298211  2.899964 -0.551028
      ESP Fit Center  327 is at   1.021432  2.580544 -0.551028
      ESP Fit Center  328 is at   0.845856  2.196085 -0.551028
      ESP Fit Center  329 is at   1.567538  2.708778 -0.812190
      ESP Fit Center  330 is at   1.278684  2.391920 -0.812190
      ESP Fit Center  331 is at   1.123798  1.992113 -0.812190
      ESP Fit Center  332 is at   1.466995  1.777733 -1.006251
      ESP Fit Center  333 is at   4.110437  1.711604  1.955261
      ESP Fit Center  334 is at   4.473500  1.711604  1.761200
      ESP Fit Center  335 is at   4.394715  2.133064  1.761200
      ESP Fit Center  336 is at   4.169002  2.497603  1.761200
      ESP Fit Center  337 is at   4.169002  0.925605  1.761200
      ESP Fit Center  338 is at   4.394715  1.290144  1.761200
      ESP Fit Center  339 is at   4.791726  1.711604  1.500038
      ESP Fit Center  340 is at   4.731576  2.129956  1.500038
      ESP Fit Center  341 is at   4.556000  2.514415  1.500038
      ESP Fit Center  342 is at   3.923662  3.062339  1.500038
      ESP Fit Center  343 is at   3.923662  0.360869  1.500038
      ESP Fit Center  344 is at   4.279221  0.589373  1.500038
      ESP Fit Center  345 is at   4.556000  0.908793  1.500038
      ESP Fit Center  346 is at   4.731576  1.293253  1.500038
      ESP Fit Center  347 is at   5.052888  1.711604  1.181812
      ESP Fit Center  348 is at   5.002150  2.129470  1.181812
      ESP Fit Center  349 is at   4.298692  0.274603  1.181812
      ESP Fit Center  350 is at   4.613766  0.553735  1.181812
      ESP Fit Center  351 is at   4.852885  0.900157  1.181812
      ESP Fit Center  352 is at   5.002150  1.293738  1.181812
      ESP Fit Center  353 is at   5.246949  1.711604  0.818749
      ESP Fit Center  354 is at   5.067632  0.896957  0.818749
      ESP Fit Center  355 is at   5.201590  1.294530  0.818749
      ESP Fit Center  356 is at   5.366451  1.711604  0.424804
      ESP Fit Center  357 is at   5.199533  0.899369  0.424804
      ESP Fit Center  358 is at   5.324290  1.297000  0.424804
      ESP Fit Center  359 is at   2.503167  3.651751  0.015114
      ESP Fit Center  360 is at   5.366451  1.301914  0.015114
      ESP Fit Center  361 is at   2.790546  3.705503 -0.394576
      ESP Fit Center  362 is at   2.399745  3.560766 -0.394576
      ESP Fit Center  363 is at   2.588680  3.513955 -0.788521
      ESP Fit Center  364 is at   2.218017  3.317442 -0.788521
      ESP Fit Center  365 is at   1.898264  3.045842 -0.788521
      ESP Fit Center  366 is at   2.687631  3.344223 -1.151583
      ESP Fit Center  367 is at   2.314912  3.148605 -1.151583
      ESP Fit Center  368 is at   1.999838  2.869473 -1.151583
      ESP Fit Center  369 is at   1.760720  2.523051 -1.151583
      ESP Fit Center  370 is at   1.611454  2.129470 -1.151583
      ESP Fit Center  371 is at   1.560716  1.711604 -1.151583
      ESP Fit Center  372 is at   3.095475  3.181414 -1.469810
      ESP Fit Center  373 is at   2.689942  3.062339 -1.469810
      ESP Fit Center  374 is at   2.334383  2.833835 -1.469810
      ESP Fit Center  375 is at   2.057604  2.514415 -1.469810
      ESP Fit Center  376 is at   1.882028  2.129956 -1.469810
      ESP Fit Center  377 is at   1.821878  1.711604 -1.469810
      ESP Fit Center  378 is at   3.414451  2.873325 -1.730972
      ESP Fit Center  379 is at   2.987520  2.833764 -1.730972
      ESP Fit Center  380 is at   2.603710  2.642649 -1.730972
      ESP Fit Center  381 is at   2.314856  2.325791 -1.730972
      ESP Fit Center  382 is at   2.159970  1.925984 -1.730972
      ESP Fit Center  383 is at   3.708620  2.407573 -1.925033
      ESP Fit Center  384 is at   3.306802  2.515239 -1.925033
      ESP Fit Center  385 is at   2.904984  2.407573 -1.925033
      ESP Fit Center  386 is at   2.610834  2.113422 -1.925033
      ESP Fit Center  387 is at   3.870315 -0.128560  1.188637
      ESP Fit Center  388 is at   4.164466  0.165590  1.188637
      ESP Fit Center  389 is at   3.988539 -0.476977  0.994576
      ESP Fit Center  390 is at   4.330697 -0.218591  0.994576
      ESP Fit Center  391 is at   4.556410  0.145948  0.994576
      ESP Fit Center  392 is at   4.953421  0.567408  0.733414
      ESP Fit Center  393 is at   4.440916 -0.554823  0.733414
      ESP Fit Center  394 is at   4.717695 -0.235403  0.733414
      ESP Fit Center  395 is at   4.893271  0.149057  0.733414
      ESP Fit Center  396 is at   5.214583  0.567408  0.415188
      ESP Fit Center  397 is at   4.460387 -0.869593  0.415188
      ESP Fit Center  398 is at   4.775461 -0.590461  0.415188
      ESP Fit Center  399 is at   5.014580 -0.244039  0.415188
      ESP Fit Center  400 is at   5.163845  0.149542  0.415188
      ESP Fit Center  401 is at   5.408644  0.567408  0.052125
      ESP Fit Center  402 is at   5.363285  0.984482  0.052125
      ESP Fit Center  403 is at   4.724522 -0.911298  0.052125
      ESP Fit Center  404 is at   5.013035 -0.606719  0.052125
      ESP Fit Center  405 is at   5.229327 -0.247239  0.052125
      ESP Fit Center  406 is at   5.363285  0.150334  0.052125
      ESP Fit Center  407 is at   5.528146  0.567408 -0.341820
      ESP Fit Center  408 is at   5.485985  0.982012 -0.341820
      ESP Fit Center  409 is at   5.361228  1.379643 -0.341820
      ESP Fit Center  410 is at   4.887527 -0.925411 -0.341820
      ESP Fit Center  411 is at   5.158982 -0.609204 -0.341820
      ESP Fit Center  412 is at   5.361228 -0.244827 -0.341820
      ESP Fit Center  413 is at   5.485985  0.152804 -0.341820
      ESP Fit Center  414 is at   4.635195 -1.178678 -0.751510
      ESP Fit Center  415 is at   4.953421 -0.917516 -0.751510
      ESP Fit Center  416 is at   4.557977 -1.180501 -1.161200
      ESP Fit Center  417 is at   1.806068  1.567658 -1.555145
      ESP Fit Center  418 is at   1.629911  1.186900 -1.555145
      ESP Fit Center  419 is at   4.087668  2.200027 -1.918207
      ESP Fit Center  420 is at   2.476607  2.004409 -1.918207
      ESP Fit Center  421 is at   2.161533  1.725277 -1.918207
      ESP Fit Center  422 is at   1.922415  1.378855 -1.918207
      ESP Fit Center  423 is at   1.773149  0.985274 -1.918207
      ESP Fit Center  424 is at   3.679824  2.037218 -2.236434
      ESP Fit Center  425 is at   3.257170  2.037218 -2.236434
      ESP Fit Center  426 is at   2.851637  1.918143 -2.236434
      ESP Fit Center  427 is at   2.496078  1.689639 -2.236434
      ESP Fit Center  428 is at   2.219299  1.370219 -2.236434
      ESP Fit Center  429 is at   2.043723  0.985760 -2.236434
      ESP Fit Center  430 is at   3.576146  1.729129 -2.497596
      ESP Fit Center  431 is at   3.149215  1.689568 -2.497596
      ESP Fit Center  432 is at   2.765405  1.498453 -2.497596
      ESP Fit Center  433 is at   2.476551  1.181595 -2.497596
      ESP Fit Center  434 is at   2.321665  0.781788 -2.497596
[...]
 7119 Fit       0.003420
 7120 Fit       0.003544
 7121 Fit       0.003829
 7122 Fit       0.004178
 7123 Fit       0.004533
 7124 Fit       0.004856
 7125 Fit       0.005370
 7126 Fit       0.005471
 7127 Fit       0.005450
 7128 Fit       0.005274
 7129 Fit       0.004877
 7130 Fit       0.004138
 7131 Fit       0.002867
 7132 Fit       0.003492
 7133 Fit       0.003793
 7134 Fit       0.004156
 7135 Fit       0.004533
 7136 Fit       0.004881
 7137 Fit       0.005167
 7138 Fit       0.005268
 7139 Fit       0.005257
 7140 Fit       0.005043
 7141 Fit       0.004564
 7142 Fit       0.003724
 7143 Fit       0.002378
 7144 Fit       0.000362
 7145 Fit       0.002583
 7146 Fit       0.003317
 7147 Fit       0.003907
 7148 Fit       0.004408
 7149 Fit       0.004817
 7150 Fit       0.005112
 7151 Fit       0.004822
 7152 Fit       0.004693
 7153 Fit       0.004257
 7154 Fit       0.003437
 7155 Fit       0.002123
 7156 Fit       0.000208
 7157 Fit      -0.002348
 7158 Fit       0.000358
 7159 Fit       0.001971
 7160 Fit       0.003045
 7161 Fit       0.003810
 7162 Fit       0.004356
 7163 Fit       0.004699
 7164 Fit       0.004020
 7165 Fit       0.003743
 7166 Fit       0.002987
 7167 Fit       0.001664
 7168 Fit      -0.000291
 7169 Fit      -0.002812
 7170 Fit      -0.003850
 7171 Fit      -0.000960
 7172 Fit       0.001113
 7173 Fit       0.002494
 7174 Fit       0.003386
 7175 Fit       0.003890
 7176 Fit       0.002842
 7177 Fit       0.002305
 7178 Fit       0.000916
 7179 Fit      -0.001271
 7180 Fit      -0.003842
 7181 Fit      -0.005425
 7182 Fit      -0.002843
 7183 Fit      -0.000252
 7184 Fit       0.001580
 7185 Fit       0.002591
 7186 Fit       0.001252
 7187 Fit       0.000102
 7188 Fit      -0.002240
 7189 Fit      -0.003396
 7190 Fit      -0.001793
 7191 Fit       0.000475
 7192 Fit      -0.000801
 7193 Fit       0.004309
 7194 Fit       0.004621
 7195 Fit       0.003281
 7196 Fit       0.001942
 7197 Fit       0.000507
 7198 Fit       0.003751
 7199 Fit       0.003285
 7200 Fit       0.002671
 7201 Fit       0.001903
 7202 Fit       0.000997
 7203 Fit      -0.000022
 7204 Fit       0.001507
 7205 Fit       0.002197
 7206 Fit       0.002429
 7207 Fit       0.002343
 7208 Fit       0.002027
 7209 Fit       0.001560
 7210 Fit       0.001021
 7211 Fit       0.000514
 7212 Fit      -0.004452
 7213 Fit      -0.001321
 7214 Fit       0.000471
 7215 Fit       0.001454
 7216 Fit       0.001919
 7217 Fit       0.002046
 7218 Fit       0.001970
 7219 Fit       0.001822
 7220 Fit       0.001762
 7221 Fit      -0.005425
 7222 Fit      -0.002110
 7223 Fit      -0.000137
 7224 Fit       0.001010
 7225 Fit       0.001637
 7226 Fit       0.001953
 7227 Fit       0.002142
 7228 Fit       0.002404
 7229 Fit       0.003025
 7230 Fit      -0.010391
 7231 Fit      -0.005419
 7232 Fit      -0.002352
 7233 Fit      -0.000452
 7234 Fit       0.000712
 7235 Fit       0.001426
 7236 Fit       0.001915
 7237 Fit       0.002399
 7238 Fit       0.003151
 7239 Fit      -0.012556
 7240 Fit      -0.006989
 7241 Fit      -0.003488
 7242 Fit      -0.001291
 7243 Fit       0.000084
 7244 Fit       0.000976
 7245 Fit       0.001662
 7246 Fit       0.002411
 7247 Fit       0.001651
 7248 Fit      -0.013903
 7249 Fit      -0.008238
 7250 Fit      -0.004542
 7251 Fit      -0.002190
 7252 Fit      -0.000708
 7253 Fit       0.000258
 7254 Fit       0.000986
 7255 Fit      -0.000752
 7256 Fit      -0.010507
 7257 Fit      -0.006278
 7258 Fit      -0.003581
 7259 Fit      -0.001969
 7260 Fit      -0.001078
 7261 Fit      -0.003595
 7262 Fit      -0.005037
 7263 Fit      -0.014308
 7264 Fit      -0.009084
 7265 Fit      -0.005622
 7266 Fit      -0.003872
 7267 Fit      -0.006922
 7268 Fit      -0.009697
 7269 Fit      -0.016005
 7270 Fit      -0.012430
 7271 Fit      -0.008055
 7272 Fit      -0.010925
 7273 Fit      -0.005769
 7274 Fit      -0.007909
 7275 Fit      -0.000635
 7276 Fit      -0.002129
 7277 Fit      -0.003526
 7278 Fit      -0.004964
 7279 Fit      -0.006477
 7280 Fit       0.002412
 7281 Fit       0.001371
 7282 Fit       0.000427
 7283 Fit      -0.000499
 7284 Fit      -0.001405
 7285 Fit      -0.002221
 7286 Fit      -0.002792
 7287 Fit       0.003955
 7288 Fit       0.003350
 7289 Fit       0.002700
 7290 Fit       0.002002
 7291 Fit       0.001287
 7292 Fit       0.000629
 7293 Fit       0.000165
 7294 Fit       0.000134
 7295 Fit       0.004830
 7296 Fit       0.004894
 7297 Fit       0.004680
 7298 Fit       0.004276
 7299 Fit       0.003733
 7300 Fit       0.003101
 7301 Fit       0.002444
 7302 Fit       0.001860
 7303 Fit       0.001510
 7304 Fit       0.001660
 7305 Fit       0.004673
 7306 Fit       0.005467
 7307 Fit       0.005703
 7308 Fit       0.005576
 7309 Fit       0.005194
 7310 Fit       0.004626
 7311 Fit       0.003927
 7312 Fit       0.003162
 7313 Fit       0.002420
 7314 Fit       0.001837
 7315 Fit       0.001645
 7316 Fit       0.004628
 7317 Fit       0.006006
 7318 Fit       0.006585
 7319 Fit       0.006638
 7320 Fit       0.006318
 7321 Fit       0.005715
 7322 Fit       0.004888
 7323 Fit       0.003886
 7324 Fit       0.002763
 7325 Fit       0.001597
 7326 Fit       0.000512
 7327 Fit       0.006337
 7328 Fit       0.007508
 7329 Fit       0.007894
 7330 Fit       0.007729
 7331 Fit       0.007144
 7332 Fit       0.006210
 7333 Fit       0.004963
 7334 Fit       0.003412
 7335 Fit       0.001554
 7336 Fit      -0.000629
 7337 Fit       0.007515
 7338 Fit       0.009095
 7339 Fit       0.009723
 7340 Fit       0.009663
 7341 Fit       0.009071
 7342 Fit       0.008026
 7343 Fit       0.006549
 7344 Fit       0.004603
 7345 Fit       0.002097
 7346 Fit       0.013163
 7347 Fit       0.012789
 7348 Fit       0.011832
 7349 Fit       0.010334
 7350 Fit       0.008254
 7351 Fit       0.005448
 7352 Fit      -0.020122
 7353 Fit      -0.015766
 7354 Fit      -0.019154
 7355 Fit      -0.015050
 7356 Fit      -0.011343
 7357 Fit      -0.017655
 7358 Fit      -0.013980
 7359 Fit      -0.010623
 7360 Fit      -0.007432
 7361 Fit      -0.019486
 7362 Fit      -0.016160
 7363 Fit      -0.013017
 7364 Fit      -0.010087
 7365 Fit      -0.007334
 7366 Fit      -0.004643
 7367 Fit      -0.017560
 7368 Fit      -0.014525
 7369 Fit      -0.011704
 7370 Fit      -0.009059
 7371 Fit      -0.006584
 7372 Fit      -0.004242
 7373 Fit      -0.001991
 7374 Fit      -0.020981
 7375 Fit      -0.013186
 7376 Fit      -0.010710
 7377 Fit      -0.008349
 7378 Fit      -0.006136
 7379 Fit      -0.004096
 7380 Fit      -0.002280
 7381 Fit      -0.000856
 7382 Fit      -0.015700
 7383 Fit      -0.009536
 7384 Fit      -0.007604
 7385 Fit      -0.005629
 7386 Fit      -0.003807
 7387 Fit      -0.002313
 7388 Fit      -0.001403
 7389 Fit      -0.001383
 7390 Fit      -0.011003
 7391 Fit      -0.006497
 7392 Fit      -0.005030
 7393 Fit      -0.003398
 7394 Fit      -0.002194
 7395 Fit      -0.001796
 7396 Fit      -0.001960
 7397 Fit       0.001316
 7398 Fit      -0.000534
 7399 Fit      -0.004565
 7400 Fit      -0.006793
 7401 Fit      -0.004084
 7402 Fit      -0.003005
 7403 Fit      -0.002044
 7404 Fit      -0.001489
 7405 Fit      -0.001132
 7406 Fit      -0.003071
 7407 Fit      -0.002376
 7408 Fit      -0.004374
 7409 Fit      -0.002473
 7410 Fit      -0.000727
 7411 Fit      -0.007854
 7412 Fit      -0.005152
 7413 Fit      -0.003017
 7414 Fit      -0.001263
 7415 Fit       0.000258
 7416 Fit       0.001679
 7417 Fit       0.003154
 7418 Fit      -0.009578
 7419 Fit      -0.006399
 7420 Fit      -0.003897
 7421 Fit      -0.001910
 7422 Fit      -0.000298
 7423 Fit       0.001046
 7424 Fit       0.002214
 7425 Fit       0.003288
 7426 Fit       0.004353
 7427 Fit       0.005495
 7428 Fit      -0.007409
 7429 Fit      -0.004698
 7430 Fit      -0.002492
 7431 Fit      -0.000711
 7432 Fit       0.000733
 7433 Fit       0.001914
 7434 Fit       0.002893
 7435 Fit       0.003719
 7436 Fit       0.004433
 7437 Fit       0.005062
 7438 Fit       0.005599
 7439 Fit      -0.007418
 7440 Fit      -0.004894
 7441 Fit      -0.002663
 7442 Fit      -0.000793
 7443 Fit       0.000735
 7444 Fit       0.001969
 7445 Fit       0.002952
 7446 Fit       0.003722
 7447 Fit       0.004306
 7448 Fit       0.004716
 7449 Fit       0.004939
 7450 Fit       0.004915
 7451 Fit       0.004504
 7452 Fit      -0.006283
 7453 Fit      -0.004508
 7454 Fit      -0.002565
 7455 Fit      -0.000766
 7456 Fit       0.000775
 7457 Fit       0.002037
 7458 Fit       0.003032
 7459 Fit       0.003781
 7460 Fit       0.004296
 7461 Fit       0.004581
 7462 Fit       0.004617
 7463 Fit       0.004349
 7464 Fit       0.003671
 7465 Fit       0.002407
 7466 Fit      -0.003434
 7467 Fit      -0.002196
 7468 Fit      -0.000725
 7469 Fit       0.000692
 7470 Fit       0.001924
 7471 Fit       0.002920
 7472 Fit       0.003666
 7473 Fit       0.004159
 7474 Fit       0.004391
 7475 Fit       0.004341
 7476 Fit       0.003966
 7477 Fit       0.003188
 7478 Fit       0.001896
 7479 Fit      -0.001347
 7480 Fit      -0.000338
 7481 Fit       0.000863
 7482 Fit       0.002000
 7483 Fit       0.002942
 7484 Fit       0.003625
 7485 Fit       0.004014
 7486 Fit       0.004084
 7487 Fit       0.003797
 7488 Fit       0.003096
 7489 Fit       0.001905
 7490 Fit       0.000146
 7491 Fit      -0.000466
 7492 Fit       0.000028
 7493 Fit       0.000910
 7494 Fit       0.001889
 7495 Fit       0.002747
 7496 Fit       0.003355
 7497 Fit       0.003636
 7498 Fit       0.003538
 7499 Fit       0.003008
 7500 Fit       0.001994
 7501 Fit       0.000455
 7502 Fit      -0.001591
 7503 Fit       0.000206
 7504 Fit       0.000864
 7505 Fit       0.001692
 7506 Fit       0.002453
 7507 Fit       0.002938
 7508 Fit       0.003007
 7509 Fit       0.002571
 7510 Fit       0.001579
 7511 Fit       0.000038
 7512 Fit      -0.001917
 7513 Fit       0.000458
 7514 Fit       0.001287
 7515 Fit       0.001991
 7516 Fit       0.002249
 7517 Fit       0.001810
 7518 Fit       0.000611
 7519 Fit      -0.001123
 7520 Fit      -0.000424
 7521 Fit       0.000395
 7522 Fit       0.001212
 7523 Fit       0.000969
 7524 Fit      -0.000442
 7525 Fit      -0.001469
 7526 Fit      -0.000816
 7527 Fit       0.000079
 7528 Fit       0.000393
 7529 Fit       0.001997
 7530 Fit      -0.002223
 7531 Fit       0.000165
 7532 Fit       0.001892
 7533 Fit       0.003122
 7534 Fit       0.004077
 7535 Fit      -0.001598
 7536 Fit       0.000627
 7537 Fit       0.002284
 7538 Fit       0.003478
 7539 Fit       0.004324
 7540 Fit       0.004967
 7541 Fit       0.005624
 7542 Fit      -0.002972
 7543 Fit      -0.000394
 7544 Fit       0.001581
 7545 Fit       0.003060
 7546 Fit       0.004127
 7547 Fit       0.004858
 7548 Fit       0.005337
 7549 Fit       0.005670
 7550 Fit       0.006019
 7551 Fit      -0.001474
 7552 Fit       0.000744
 7553 Fit       0.002450
 7554 Fit       0.003737
 7555 Fit       0.004670
 7556 Fit       0.005301
 7557 Fit       0.005679
 7558 Fit       0.005856
 7559 Fit       0.005904
 7560 Fit       0.005924
 7561 Fit       0.006074
 7562 Fit      -0.001489
 7563 Fit       0.000791
 7564 Fit       0.002535
 7565 Fit       0.003855
 7566 Fit       0.004822
 7567 Fit       0.005484
 7568 Fit       0.005876
 7569 Fit       0.006031
 7570 Fit       0.005984
 7571 Fit       0.005781
 7572 Fit       0.005482
 7573 Fit       0.005170
 7574 Fit       0.000960
 7575 Fit       0.002647
 7576 Fit       0.003928
 7577 Fit       0.004880
 7578 Fit       0.005546
 7579 Fit       0.005954
 7580 Fit       0.006123
 7581 Fit       0.006072
 7582 Fit       0.005819
 7583 Fit       0.005386
 7584 Fit       0.004799
 7585 Fit       0.004084
 7586 Fit       0.003256
 7587 Fit       0.001744
 7588 Fit       0.003191
 7589 Fit       0.004288
 7590 Fit       0.005102
 7591 Fit       0.005666
 7592 Fit       0.005997
 7593 Fit       0.006103
 7594 Fit       0.005991
 7595 Fit       0.005666
 7596 Fit       0.005133
 7597 Fit       0.004395
 7598 Fit       0.003449
 7599 Fit       0.002271
 7600 Fit       0.003293
 7601 Fit       0.004269
 7602 Fit       0.005008
 7603 Fit       0.005534
 7604 Fit       0.005850
 7605 Fit       0.005952
 7606 Fit       0.005833
 7607 Fit       0.005487
 7608 Fit       0.004906
 7609 Fit       0.004081
 7610 Fit       0.002994
 7611 Fit       0.001606
 7612 Fit       0.004809
 7613 Fit       0.005212
 7614 Fit       0.005522
 7615 Fit       0.005692
 7616 Fit       0.005681
 7617 Fit       0.005459
 7618 Fit       0.005001
 7619 Fit       0.004283
 7620 Fit       0.003281
 7621 Fit       0.001959
 7622 Fit       0.000257
 7623 Fit       0.005737
 7624 Fit       0.005602
 7625 Fit       0.005500
 7626 Fit       0.005310
 7627 Fit       0.004953
 7628 Fit       0.004373
 7629 Fit       0.003525
 7630 Fit       0.002366
 7631 Fit       0.000844
 7632 Fit      -0.001115
 7633 Fit       0.005580
 7634 Fit       0.005059
 7635 Fit       0.004523
 7636 Fit       0.003816
 7637 Fit       0.002836
 7638 Fit       0.001502
 7639 Fit      -0.000266
 7640 Fit       0.005154
 7641 Fit       0.004181
 7642 Fit       0.003250
 7643 Fit       0.002111
 7644 Fit       0.000605
 7645 Fit      -0.000801
 7646 Fit      -0.003396
 7647 Fit      -0.002240
 7648 Fit       0.000102
 7649 Fit       0.001252
 7650 Fit       0.000475
 7651 Fit      -0.001793
 7652 Fit      -0.003842
 7653 Fit      -0.001271
 7654 Fit       0.000916
 7655 Fit       0.002305
 7656 Fit       0.002842
 7657 Fit       0.002591
 7658 Fit       0.001580
 7659 Fit      -0.000252
 7660 Fit      -0.002843
 7661 Fit      -0.005425
 7662 Fit      -0.002812
 7663 Fit      -0.000291
 7664 Fit       0.001664
 7665 Fit       0.002987
 7666 Fit       0.003743
 7667 Fit       0.004020
 7668 Fit       0.003890
 7669 Fit       0.003386
 7670 Fit       0.002494
 7671 Fit       0.001113
 7672 Fit      -0.000961
 7673 Fit      -0.003850
 7674 Fit      -0.000993
 7675 Fit       0.001246
 7676 Fit       0.002849
 7677 Fit       0.003901
 7678 Fit       0.004517
 7679 Fit       0.004792
 7680 Fit       0.004790
 7681 Fit       0.004553
 7682 Fit       0.004108
 7683 Fit       0.003458
 7684 Fit       0.002557
 7685 Fit       0.001254
 7686 Fit      -0.000769
 7687 Fit      -0.000935
 7688 Fit       0.001463
 7689 Fit       0.003125
 7690 Fit       0.004197
 7691 Fit       0.004841
 7692 Fit       0.005179
 7693 Fit       0.005286
 7694 Fit       0.005209
 7695 Fit       0.004980
 7696 Fit       0.004625
 7697 Fit       0.004168
 7698 Fit       0.003624
 7699 Fit       0.002976
 7700 Fit       0.002105
 7701 Fit       0.001955
 7702 Fit       0.003584
 7703 Fit       0.004561
 7704 Fit       0.005109
 7705 Fit       0.005385
 7706 Fit       0.005477
 7707 Fit       0.005434
 7708 Fit       0.005280
 7709 Fit       0.005033
 7710 Fit       0.004713
 7711 Fit       0.004346
 7712 Fit       0.003970
 7713 Fit       0.003632
 7714 Fit       0.003379
 7715 Fit       0.005018
 7716 Fit       0.005444
 7717 Fit       0.005571
 7718 Fit       0.005545
 7719 Fit       0.005429
 7720 Fit       0.005246
 7721 Fit       0.005000
 7722 Fit       0.004700
 7723 Fit       0.004357
 7724 Fit       0.004000
 7725 Fit       0.003673
 7726 Fit       0.003454
 7727 Fit       0.003465
 7728 Fit       0.006067
 7729 Fit       0.005712
 7730 Fit       0.005366
 7731 Fit       0.005037
 7732 Fit       0.004711
 7733 Fit       0.004372
 7734 Fit       0.004010
 7735 Fit       0.003631
 7736 Fit       0.003253
 7737 Fit       0.002920
 7738 Fit       0.002710
 7739 Fit       0.002761
 7740 Fit       0.005937
 7741 Fit       0.005157
 7742 Fit       0.004550
 7743 Fit       0.004046
 7744 Fit       0.003593
 7745 Fit       0.003155
 7746 Fit       0.002717
 7747 Fit       0.002279
 7748 Fit       0.001865
 7749 Fit       0.001525
 7750 Fit       0.001353
 7751 Fit       0.005112
 7752 Fit       0.003990
 7753 Fit       0.003179
 7754 Fit       0.002532
 7755 Fit       0.001964
 7756 Fit       0.001423
 7757 Fit       0.000887
 7758 Fit       0.000358
 7759 Fit      -0.000136
 7760 Fit       0.001623
 7761 Fit       0.000793
 7762 Fit       0.000089
 7763 Fit      -0.000575
 7764 Fit      -0.001243
 7765 Fit      -0.010925
 7766 Fit      -0.016005
 7767 Fit      -0.009697
 7768 Fit      -0.006922
 7769 Fit      -0.008055
 7770 Fit      -0.012430
 7771 Fit      -0.005037
 7772 Fit      -0.003595
 7773 Fit      -0.003872
 7774 Fit      -0.005622
 7775 Fit      -0.009084
 7776 Fit      -0.014308
 7777 Fit      -0.000752
 7778 Fit      -0.001078
 7779 Fit      -0.001969
 7780 Fit      -0.003581
 7781 Fit      -0.006278
 7782 Fit      -0.010507
 7783 Fit       0.001322
 7784 Fit       0.000638
 7785 Fit      -0.000180
 7786 Fit      -0.001365
 7787 Fit      -0.003231
 7788 Fit      -0.006187
 7789 Fit      -0.010780
 7790 Fit       0.002898
 7791 Fit       0.002011
 7792 Fit       0.001328
 7793 Fit       0.000573
 7794 Fit      -0.000524
 7795 Fit      -0.002261
 7796 Fit      -0.005036
 7797 Fit      -0.009451
 7798 Fit       0.002721
 7799 Fit       0.002142
 7800 Fit       0.001685
 7801 Fit       0.001110
 7802 Fit       0.000201
 7803 Fit      -0.001288
 7804 Fit      -0.003703
 7805 Fit      -0.007602
 7806 Fit       0.002646
 7807 Fit       0.002249
 7808 Fit       0.002052
 7809 Fit       0.001822
 7810 Fit       0.001374
 7811 Fit       0.000517
 7812 Fit      -0.000995
 7813 Fit      -0.003554
 7814 Fit      -0.007862
 7815 Fit       0.001834
 7816 Fit       0.001769
 7817 Fit       0.001896
 7818 Fit       0.002025
 7819 Fit       0.002016
 7820 Fit       0.001739
 7821 Fit       0.001042
 7822 Fit      -0.000299
 7823 Fit      -0.002671
 7824 Fit       0.000514
 7825 Fit       0.001021
 7826 Fit       0.001560
 7827 Fit       0.002027
 7828 Fit       0.002343
 7829 Fit       0.002429
 7830 Fit       0.002197
 7831 Fit       0.001507
 7832 Fit       0.000500
 7833 Fit       0.001466
 7834 Fit       0.002305
 7835 Fit       0.002997
 7836 Fit       0.003535
 7837 Fit       0.001240
 7838 Fit       0.002619
 7839 Fit       0.003941
 7840 Fit       0.003248
 -----------------------------------------------------------------
 Leave Link  602 at Mon Feb  5 11:23:30 2024, MaxMem=   104857600 cpu:               1.2 elap:               1.2

 Test job not archived.
 1\1\GINC-TERPSICHORE\SP\RHF\6-31G(d)\C14H14O2\MASTER9\05-Feb-2024\0\\#
 HF/6-31G* scrf=smd SCF=tight Test Pop=MK iop(6/33=2) iop(6/42=6) # iop
 (6/50=1)\\calc RESP charges\\0,1\O,0,0.105774,-1.74069,1.777295\H,0,0.
 834841,-1.823034,2.382433\C,0,-0.613009,-1.62701,-0.467006\H,0,-1.1669
 97,-2.524969,-0.216322\C,0,-1.548779,-0.44041,-0.313444\C,0,-1.397913,
 0.709936,-1.081586\C,0,-2.27063,1.777733,-0.933896\C,0,-3.306802,1.711
 604,-0.015114\C,0,-3.468497,0.567408,0.75151\C,0,-2.598305,-0.500868,0
 .598044\C,0,0.613009,-1.62701,0.467006\C,0,1.548779,-0.44041,0.313444\
 C,0,1.397913,0.709936,1.081586\C,0,2.270629,1.777733,0.933896\C,0,3.30
 6802,1.711604,0.015115\C,0,3.468498,0.567409,-0.75151\C,0,2.598306,-0.
 500868,-0.598043\O,0,-0.105774,-1.740689,-1.777296\H,0,-0.834841,-1.82
 3028,-2.382435\H,0,-0.602961,0.773106,-1.800689\H,0,-2.140754,2.658565
 ,-1.537241\H,0,-3.984424,2.539037,0.097391\H,0,-4.274596,0.501865,1.46
 0431\H,0,-2.740881,-1.389422,1.186969\H,0,1.166998,-2.524969,0.216321\
 H,0,0.60296,0.773106,1.800689\H,0,2.140753,2.658566,1.537241\H,0,3.984
 423,2.539037,-0.09739\H,0,4.274597,0.501866,-1.46043\H,0,2.740882,-1.3
 89422,-1.186968\\Version=EM64L-G16RevC.01\State=1-A\HF=-688.0413369\RM
 SD=4.007e-09\Dipole=-0.0000004,-0.0837464,0.0000007\Quadrupole=0.94910
 39,1.1962656,-2.1453694,-0.0000098,0.8482385,-0.0000273\PG=C01 [X(C14H
 14O2)]\\@


 Statistics are no substitute for judgment.
                            -- Henry Clay
 Job cpu time:       0 days  0 hours  2 minutes 39.2 seconds.
 Elapsed time:       0 days  0 hours  2 minutes 39.7 seconds.
 File lengths (MBytes):  RWF=    128 Int=      0 D2E=      0 Chk=      6 Scr=      1
 Normal termination of Gaussian 16 at Mon Feb  5 11:23:30 2024.
