 Entering Gaussian System, Link 0=g16
 Input=STO.com
 Output=STO.log
 Initial command:
 /usr/local/gaussian/gaussian16.c01-legacy/g16/l1.exe "/scratch/master9/Gau-1215358.inp" -scrdir="/scratch/master9/"
 Entering Link 1 = /usr/local/gaussian/gaussian16.c01-legacy/g16/l1.exe PID=   1215359.
  
 Copyright (c) 1988-2019, Gaussian, Inc.  All Rights Reserved.
  
 This is part of the Gaussian(R) 16 program.  It is based on
 the Gaussian(R) 09 system (copyright 2009, Gaussian, Inc.),
 the Gaussian(R) 03 system (copyright 2003, Gaussian, Inc.),
 the Gaussian(R) 98 system (copyright 1998, Gaussian, Inc.),
 the Gaussian(R) 94 system (copyright 1995, Gaussian, Inc.),
 the Gaussian 92(TM) system (copyright 1992, Gaussian, Inc.),
 the Gaussian 90(TM) system (copyright 1990, Gaussian, Inc.),
 the Gaussian 88(TM) system (copyright 1988, Gaussian, Inc.),
 the Gaussian 86(TM) system (copyright 1986, Carnegie Mellon
 University), and the Gaussian 82(TM) system (copyright 1983,
 Carnegie Mellon University). Gaussian is a federally registered
 trademark of Gaussian, Inc.
  
 This software contains proprietary and confidential information,
 including trade secrets, belonging to Gaussian, Inc.
  
 This software is provided under written license and may be
 used, copied, transmitted, or stored only in accord with that
 written license.
  
 The following legend is applicable only to US Government
 contracts under FAR:
  
                    RESTRICTED RIGHTS LEGEND
  
 Use, reproduction and disclosure by the US Government is
 subject to restrictions as set forth in subparagraphs (a)
 and (c) of the Commercial Computer Software - Restricted
 Rights clause in FAR 52.227-19.
  
 Gaussian, Inc.
 340 Quinnipiac St., Bldg. 40, Wallingford CT 06492
  
  
 ---------------------------------------------------------------
 Warning -- This program may not be used in any manner that
 competes with the business of Gaussian, Inc. or will provide
 assistance to any competitor of Gaussian, Inc.  The licensee
 of this program is prohibited from giving any competitor of
 Gaussian, Inc. access to this program.  By using this program,
 the user acknowledges that Gaussian, Inc. is engaged in the
 business of creating and licensing software in the field of
 computational chemistry and represents and warrants to the
 licensee that it is not a competitor of Gaussian, Inc. and that
 it will not use this program in any manner prohibited above.
 ---------------------------------------------------------------
  

 Cite this work as:
 Gaussian 16, Revision C.01,
 M. J. Frisch, G. W. Trucks, H. B. Schlegel, G. E. Scuseria, 
 M. A. Robb, J. R. Cheeseman, G. Scalmani, V. Barone, 
 G. A. Petersson, H. Nakatsuji, X. Li, M. Caricato, A. V. Marenich, 
 J. Bloino, B. G. Janesko, R. Gomperts, B. Mennucci, H. P. Hratchian, 
 J. V. Ortiz, A. F. Izmaylov, J. L. Sonnenberg, D. Williams-Young, 
 F. Ding, F. Lipparini, F. Egidi, J. Goings, B. Peng, A. Petrone, 
 T. Henderson, D. Ranasinghe, V. G. Zakrzewski, J. Gao, N. Rega, 
 G. Zheng, W. Liang, M. Hada, M. Ehara, K. Toyota, R. Fukuda, 
 J. Hasegawa, M. Ishida, T. Nakajima, Y. Honda, O. Kitao, H. Nakai, 
 T. Vreven, K. Throssell, J. A. Montgomery, Jr., J. E. Peralta, 
 F. Ogliaro, M. J. Bearpark, J. J. Heyd, E. N. Brothers, K. N. Kudin, 
 V. N. Staroverov, T. A. Keith, R. Kobayashi, J. Normand, 
 K. Raghavachari, A. P. Rendell, J. C. Burant, S. S. Iyengar, 
 J. Tomasi, M. Cossi, J. M. Millam, M. Klene, C. Adamo, R. Cammi, 
 J. W. Ochterski, R. L. Martin, K. Morokuma, O. Farkas, 
 J. B. Foresman, and D. J. Fox, Gaussian, Inc., Wallingford CT, 2019.
 
 ******************************************
 Gaussian 16:  EM64L-G16RevC.01  3-Jul-2019
                 2-Feb-2024 
 ******************************************
 %nproc=1
 Will use up to    1 processors via shared memory.
 %chk=STO
 %Mem=1GB
 ------------------------
 # HF/6-31G* scrf=smd opt
 ------------------------
 1/18=20,19=15,26=6,38=1/1,3;
 2/9=110,12=2,17=6,18=5,40=1/2;
 3/5=1,6=6,7=1,11=9,25=1,30=1,70=32201,71=1/1,2,3;
 4//1;
 5/5=2,38=5/2;
 6/7=2,8=2,9=2,10=2,28=1/1;
 7//1,2,3,16;
 1/18=20,19=15,26=6/3(2);
 2/9=110/2;
 99//99;
 2/9=110/2;
 3/5=1,6=6,7=1,11=9,25=1,30=1,70=32205,71=1/1,2,3;
 4/5=5,16=3,69=1/1;
 5/5=2,38=5/2;
 7//1,2,3,16;
 1/18=20,19=15,26=6/3(-5);
 2/9=110/2;
 6/7=2,8=2,9=2,10=2,19=2,28=1/1;
 99/9=1/99;
 ----------------------
 stilbeneoxide molecule
 ----------------------
 Symbolic Z-matrix:
 Charge =  0 Multiplicity = 1
 O                     0.00021   2.25226   1.13541 
 C                     0.75834   1.94257  -0.04591 
 C                     1.572     0.67026  -0.05757 
 C                     2.09476   0.16762  -1.26207 
 C                     2.88019  -0.98866  -1.29263 
 C                     3.15632  -1.67414  -0.11361 
 C                     2.65033  -1.20172   1.09309 
 C                     1.87356  -0.04032   1.11744 
 C                    -0.76131   1.94152  -0.04338 
 C                    -1.57326   0.66795  -0.0531 
 C                    -1.85394  -0.05473   1.1197 
 C                    -2.62935  -1.2171    1.09702 
 C                    -3.15502  -1.67846  -0.10553 
 C                    -2.89981  -0.98102  -1.28221 
 C                    -2.11557   0.17613  -1.2535 
 H                     1.23163   2.79351  -0.52911 
 H                     1.89286   0.68989  -2.19469 
 H                     3.2764   -1.35128  -2.2374 
 H                     3.76462  -2.5742   -0.13427 
 H                     2.85885  -1.73258   2.01797 
 H                     1.49085   0.31669   2.07172 
 H                    -1.23727   2.79203  -0.52474 
 H                    -1.45572   0.29333   2.07094 
 H                    -2.82141  -1.75733   2.02004 
 H                    -3.76237  -2.57919  -0.12473 
 H                    -3.31151  -1.3349   -2.22367 
 H                    -1.93039   0.70786  -2.18424 
 

 GradGradGradGradGradGradGradGradGradGradGradGradGradGradGradGradGradGrad
 Berny optimization.
 Initialization pass.
                           ----------------------------
                           !    Initial Parameters    !
                           ! (Angstroms and Degrees)  !
 --------------------------                            --------------------------
 ! Name  Definition              Value          Derivative Info.                !
 --------------------------------------------------------------------------------
 ! R1    R(1,2)                  1.4374         estimate D2E/DX2                !
 ! R2    R(1,9)                  1.4374         estimate D2E/DX2                !
 ! R3    R(2,3)                  1.5103         estimate D2E/DX2                !
 ! R4    R(2,9)                  1.5197         estimate D2E/DX2                !
 ! R5    R(2,16)                 1.087          estimate D2E/DX2                !
 ! R6    R(3,4)                  1.406          estimate D2E/DX2                !
 ! R7    R(3,8)                  1.4059         estimate D2E/DX2                !
 ! R8    R(4,5)                  1.3981         estimate D2E/DX2                !
 ! R9    R(4,17)                 1.0878         estimate D2E/DX2                !
 ! R10   R(5,6)                  1.3915         estimate D2E/DX2                !
 ! R11   R(5,18)                 1.0868         estimate D2E/DX2                !
 ! R12   R(6,7)                  1.3912         estimate D2E/DX2                !
 ! R13   R(6,19)                 1.0865         estimate D2E/DX2                !
 ! R14   R(7,8)                  1.3974         estimate D2E/DX2                !
 ! R15   R(7,20)                 1.0866         estimate D2E/DX2                !
 ! R16   R(8,21)                 1.0884         estimate D2E/DX2                !
 ! R17   R(9,10)                 1.5104         estimate D2E/DX2                !
 ! R18   R(9,22)                 1.087          estimate D2E/DX2                !
 ! R19   R(10,11)                1.4059         estimate D2E/DX2                !
 ! R20   R(10,15)                1.406          estimate D2E/DX2                !
 ! R21   R(11,12)                1.3975         estimate D2E/DX2                !
 ! R22   R(11,23)                1.0884         estimate D2E/DX2                !
 ! R23   R(12,13)                1.3912         estimate D2E/DX2                !
 ! R24   R(12,24)                1.0866         estimate D2E/DX2                !
 ! R25   R(13,14)                1.3914         estimate D2E/DX2                !
 ! R26   R(13,25)                1.0865         estimate D2E/DX2                !
 ! R27   R(14,15)                1.3982         estimate D2E/DX2                !
 ! R28   R(14,26)                1.0868         estimate D2E/DX2                !
 ! R29   R(15,27)                1.0878         estimate D2E/DX2                !
 ! A1    A(1,2,3)              118.1637         estimate D2E/DX2                !
 ! A2    A(1,2,16)             115.2335         estimate D2E/DX2                !
 ! A3    A(3,2,9)              122.5596         estimate D2E/DX2                !
 ! A4    A(3,2,16)             114.9277         estimate D2E/DX2                !
 ! A5    A(9,2,16)             115.8927         estimate D2E/DX2                !
 ! A6    A(2,3,4)              120.5375         estimate D2E/DX2                !
 ! A7    A(2,3,8)              122.3372         estimate D2E/DX2                !
 ! A8    A(4,3,8)              117.1015         estimate D2E/DX2                !
 ! A9    A(3,4,5)              121.551          estimate D2E/DX2                !
 ! A10   A(3,4,17)             119.5932         estimate D2E/DX2                !
 ! A11   A(5,4,17)             118.8544         estimate D2E/DX2                !
 ! A12   A(4,5,6)              120.0241         estimate D2E/DX2                !
 ! A13   A(4,5,18)             119.9837         estimate D2E/DX2                !
 ! A14   A(6,5,18)             119.9921         estimate D2E/DX2                !
 ! A15   A(5,6,7)              119.7025         estimate D2E/DX2                !
 ! A16   A(5,6,19)             120.2031         estimate D2E/DX2                !
 ! A17   A(7,6,19)             120.0944         estimate D2E/DX2                !
 ! A18   A(6,7,8)              119.9681         estimate D2E/DX2                !
 ! A19   A(6,7,20)             120.1725         estimate D2E/DX2                !
 ! A20   A(8,7,20)             119.8593         estimate D2E/DX2                !
 ! A21   A(3,8,7)              121.6501         estimate D2E/DX2                !
 ! A22   A(3,8,21)             119.4449         estimate D2E/DX2                !
 ! A23   A(7,8,21)             118.9044         estimate D2E/DX2                !
 ! A24   A(1,9,10)             118.1883         estimate D2E/DX2                !
 ! A25   A(1,9,22)             115.2134         estimate D2E/DX2                !
 ! A26   A(2,9,10)             122.5571         estimate D2E/DX2                !
 ! A27   A(2,9,22)             115.8858         estimate D2E/DX2                !
 ! A28   A(10,9,22)            114.9298         estimate D2E/DX2                !
 ! A29   A(9,10,11)            122.3705         estimate D2E/DX2                !
 ! A30   A(9,10,15)            120.5159         estimate D2E/DX2                !
 ! A31   A(11,10,15)           117.0901         estimate D2E/DX2                !
 ! A32   A(10,11,12)           121.6552         estimate D2E/DX2                !
 ! A33   A(10,11,23)           119.4496         estimate D2E/DX2                !
 ! A34   A(12,11,23)           118.8946         estimate D2E/DX2                !
 ! A35   A(11,12,13)           119.97           estimate D2E/DX2                !
 ! A36   A(11,12,24)           119.8564         estimate D2E/DX2                !
 ! A37   A(13,12,24)           120.1736         estimate D2E/DX2                !
 ! A38   A(12,13,14)           119.7007         estimate D2E/DX2                !
 ! A39   A(12,13,25)           120.094          estimate D2E/DX2                !
 ! A40   A(14,13,25)           120.2053         estimate D2E/DX2                !
 ! A41   A(13,14,15)           120.0228         estimate D2E/DX2                !
 ! A42   A(13,14,26)           119.9922         estimate D2E/DX2                !
 ! A43   A(15,14,26)           119.9848         estimate D2E/DX2                !
 ! A44   A(10,15,14)           121.5585         estimate D2E/DX2                !
 ! A45   A(10,15,27)           119.5932         estimate D2E/DX2                !
 ! A46   A(14,15,27)           118.8468         estimate D2E/DX2                !
 ! D1    D(1,2,3,4)            166.191          estimate D2E/DX2                !
 ! D2    D(1,2,3,8)            -15.636          estimate D2E/DX2                !
 ! D3    D(9,2,3,4)             97.8817         estimate D2E/DX2                !
 ! D4    D(9,2,3,8)            -83.9452         estimate D2E/DX2                !
 ! D5    D(16,2,3,4)           -52.3589         estimate D2E/DX2                !
 ! D6    D(16,2,3,8)           125.8142         estimate D2E/DX2                !
 ! D7    D(3,2,9,10)            -0.0344         estimate D2E/DX2                !
 ! D8    D(3,2,9,22)          -149.9968         estimate D2E/DX2                !
 ! D9    D(16,2,9,10)          149.9426         estimate D2E/DX2                !
 ! D10   D(16,2,9,22)           -0.0198         estimate D2E/DX2                !
 ! D11   D(2,3,4,5)            178.2888         estimate D2E/DX2                !
 ! D12   D(2,3,4,17)            -1.2731         estimate D2E/DX2                !
 ! D13   D(8,3,4,5)              0.0227         estimate D2E/DX2                !
 ! D14   D(8,3,4,17)          -179.5391         estimate D2E/DX2                !
 ! D15   D(2,3,8,7)           -178.6977         estimate D2E/DX2                !
 ! D16   D(2,3,8,21)             1.5885         estimate D2E/DX2                !
 ! D17   D(4,3,8,7)             -0.4653         estimate D2E/DX2                !
 ! D18   D(4,3,8,21)           179.8209         estimate D2E/DX2                !
 ! D19   D(3,4,5,6)              0.2842         estimate D2E/DX2                !
 ! D20   D(3,4,5,18)          -179.6229         estimate D2E/DX2                !
 ! D21   D(17,4,5,6)           179.8492         estimate D2E/DX2                !
 ! D22   D(17,4,5,18)           -0.0579         estimate D2E/DX2                !
 ! D23   D(4,5,6,7)             -0.1538         estimate D2E/DX2                !
 ! D24   D(4,5,6,19)           179.8701         estimate D2E/DX2                !
 ! D25   D(18,5,6,7)           179.7532         estimate D2E/DX2                !
 ! D26   D(18,5,6,19)           -0.2229         estimate D2E/DX2                !
 ! D27   D(5,6,7,8)             -0.2798         estimate D2E/DX2                !
 ! D28   D(5,6,7,20)           179.8253         estimate D2E/DX2                !
 ! D29   D(19,6,7,8)           179.6964         estimate D2E/DX2                !
 ! D30   D(19,6,7,20)           -0.1986         estimate D2E/DX2                !
 ! D31   D(6,7,8,3)              0.6022         estimate D2E/DX2                !
 ! D32   D(6,7,8,21)          -179.6825         estimate D2E/DX2                !
 ! D33   D(20,7,8,3)          -179.5026         estimate D2E/DX2                !
 ! D34   D(20,7,8,21)            0.2127         estimate D2E/DX2                !
 ! D35   D(1,9,10,11)           14.6778         estimate D2E/DX2                !
 ! D36   D(1,9,10,15)         -167.1391         estimate D2E/DX2                !
 ! D37   D(2,9,10,11)           83.0025         estimate D2E/DX2                !
 ! D38   D(2,9,10,15)          -98.8144         estimate D2E/DX2                !
 ! D39   D(22,9,10,11)        -126.7739         estimate D2E/DX2                !
 ! D40   D(22,9,10,15)          51.4092         estimate D2E/DX2                !
 ! D41   D(9,10,11,12)         178.7004         estimate D2E/DX2                !
 ! D42   D(9,10,11,23)          -1.5869         estimate D2E/DX2                !
 ! D43   D(15,10,11,12)          0.4585         estimate D2E/DX2                !
 ! D44   D(15,10,11,23)       -179.8288         estimate D2E/DX2                !
 ! D45   D(9,10,15,14)        -178.2887         estimate D2E/DX2                !
 ! D46   D(9,10,15,27)           1.2556         estimate D2E/DX2                !
 ! D47   D(11,10,15,14)         -0.0123         estimate D2E/DX2                !
 ! D48   D(11,10,15,27)        179.5319         estimate D2E/DX2                !
 ! D49   D(10,11,12,13)         -0.6023         estimate D2E/DX2                !
 ! D50   D(10,11,12,24)        179.5034         estimate D2E/DX2                !
 ! D51   D(23,11,12,13)        179.6834         estimate D2E/DX2                !
 ! D52   D(23,11,12,24)         -0.2109         estimate D2E/DX2                !
 ! D53   D(11,12,13,14)          0.2834         estimate D2E/DX2                !
 ! D54   D(11,12,13,25)       -179.6896         estimate D2E/DX2                !
 ! D55   D(24,12,13,14)       -179.8227         estimate D2E/DX2                !
 ! D56   D(24,12,13,25)          0.2043         estimate D2E/DX2                !
 ! D57   D(12,13,14,15)          0.1538         estimate D2E/DX2                !
 ! D58   D(12,13,14,26)       -179.747          estimate D2E/DX2                !
 ! D59   D(25,13,14,15)       -179.8733         estimate D2E/DX2                !
 ! D60   D(25,13,14,26)          0.226          estimate D2E/DX2                !
 ! D61   D(13,14,15,10)         -0.2914         estimate D2E/DX2                !
 ! D62   D(13,14,15,27)       -179.8389         estimate D2E/DX2                !
 ! D63   D(26,14,15,10)        179.6094         estimate D2E/DX2                !
 ! D64   D(26,14,15,27)          0.0619         estimate D2E/DX2                !
 --------------------------------------------------------------------------------
 Trust Radius=3.00D-01 FncErr=5.00D-06 GrdErr=5.00D-06 EigMax=2.50D+02 EigMin=1.00D-04
 Number of steps in this run=    149 maximum allowed number of steps=    162.
 GradGradGradGradGradGradGradGradGradGradGradGradGradGradGradGradGradGrad

                          Input orientation:                          
 ---------------------------------------------------------------------
 Center     Atomic      Atomic             Coordinates (Angstroms)
 Number     Number       Type             X           Y           Z
 ---------------------------------------------------------------------
      1          8           0        0.000210    2.252260    1.135410
      2          6           0        0.758340    1.942570   -0.045910
      3          6           0        1.572000    0.670260   -0.057570
      4          6           0        2.094760    0.167620   -1.262070
      5          6           0        2.880190   -0.988660   -1.292630
      6          6           0        3.156320   -1.674140   -0.113610
      7          6           0        2.650330   -1.201720    1.093090
      8          6           0        1.873560   -0.040320    1.117440
      9          6           0       -0.761310    1.941520   -0.043380
     10          6           0       -1.573260    0.667950   -0.053100
     11          6           0       -1.853940   -0.054730    1.119700
     12          6           0       -2.629350   -1.217100    1.097020
     13          6           0       -3.155020   -1.678460   -0.105530
     14          6           0       -2.899810   -0.981020   -1.282210
     15          6           0       -2.115570    0.176130   -1.253500
     16          1           0        1.231630    2.793510   -0.529110
     17          1           0        1.892860    0.689890   -2.194690
     18          1           0        3.276400   -1.351280   -2.237400
     19          1           0        3.764620   -2.574200   -0.134270
     20          1           0        2.858850   -1.732580    2.017970
     21          1           0        1.490850    0.316690    2.071720
     22          1           0       -1.237270    2.792030   -0.524740
     23          1           0       -1.455720    0.293330    2.070940
     24          1           0       -2.821410   -1.757330    2.020040
     25          1           0       -3.762370   -2.579190   -0.124730
     26          1           0       -3.311510   -1.334900   -2.223670
     27          1           0       -1.930390    0.707860   -2.184240
 ---------------------------------------------------------------------
                    Distance matrix (angstroms):
                    1          2          3          4          5
     1  O    0.000000
     2  C    1.437423   0.000000
     3  C    2.529120   1.510282   0.000000
     4  C    3.805361   2.532886   1.405968   0.000000
     5  C    4.969228   3.827358   2.447192   1.398148   0.000000
     6  C    5.190154   4.339986   2.830092   2.416185   1.391481
     7  C    4.353723   3.842331   2.447677   2.780383   2.406219
     8  C    2.960690   2.555181   1.405884   2.398799   2.778685
     9  C    1.437365   1.519652   2.657186   3.576180   4.838089
    10  C    2.529506   2.657267   3.145264   3.894395   4.910602
    11  C    2.959784   3.488819   3.694407   4.616763   5.394770
    12  C    4.353449   4.771399   4.748321   5.458935   6.009796
    13  C    5.190951   5.331960   5.278589   5.683818   6.189410
    14  C    4.970825   4.843333   4.921743   5.124989   5.780014
    15  C    3.807063   3.583007   3.908016   4.210347   5.129901
    16  H    2.140087   1.087007   2.201452   2.859637   4.195894
    17  H    4.136749   2.733788   2.161161   1.087800   2.146174
    18  H    5.924084   4.689638   3.426844   2.157452   1.086769
    19  H    6.251207   5.426485   3.916629   3.402638   2.153590
    20  H    4.982939   4.709402   3.426002   3.866944   3.393220
    21  H    2.616317   2.768468   2.159971   3.391325   3.866918
    22  H    2.139815   2.221108   3.551359   4.305068   5.642406
    23  H    2.613877   3.478952   3.720177   4.871413   5.635354
    24  H    4.982060   5.547253   5.432468   6.216623   6.638741
    25  H    6.252029   6.394478   6.246514   6.568446   6.929457
    26  H    5.926097   5.661107   5.706253   5.692978   6.270874
    27  H    4.139138   3.650511   4.097667   4.164624   5.178304
                    6          7          8          9         10
     6  C    0.000000
     7  C    1.391162   0.000000
     8  C    2.414607   1.397431   0.000000
     9  C    5.331581   4.776066   3.495387   0.000000
    10  C    5.278065   4.759005   3.708420   1.510410   0.000000
    11  C    5.407980   4.648090   3.727529   2.555701   1.405883
    12  C    5.928616   5.279704   4.654184   3.842781   2.447757
    13  C    6.311347   5.946937   5.428239   4.340273   2.830257
    14  C    6.206670   6.041094   5.424786   3.827417   2.447355
    15  C    5.702252   5.488056   4.645575   2.532787   1.406040
    16  H    4.882312   4.539395   3.339730   2.221178   3.551338
    17  H    3.393503   3.868003   3.391723   3.638589   4.074417
    18  H    2.151544   3.392123   3.865427   5.653261   5.689258
    19  H    1.086537   2.152152   3.400505   6.394062   6.245886
    20  H    2.153030   1.086598   2.155341   5.554614   5.449355
    21  H    3.393061   2.146551   1.088381   3.490837   3.745266
    22  H    6.278482   5.803520   4.516218   1.087020   2.201602
    23  H    5.469379   4.477836   3.479165   2.769311   2.160024
    24  H    6.347648   5.577444   5.079917   4.709905   3.426043
    25  H    6.977644   6.671074   6.304963   5.426767   3.916791
    26  H    6.811774   6.823648   6.302690   4.689575   3.426995
    27  H    5.986322   5.947301   5.092239   2.733486   2.161225
                   11         12         13         14         15
    11  C    0.000000
    12  C    1.397454   0.000000
    13  C    2.414642   1.391154   0.000000
    14  C    2.778674   2.406162   1.391449   0.000000
    15  C    2.398713   2.780288   2.416153   1.398160   0.000000
    16  H    4.511296   5.799695   6.278585   5.646506   4.310356
    17  H    5.057485   5.909513   5.954390   5.156961   4.149373
    18  H    6.266702   6.783380   6.783442   6.260595   5.689849
    19  H    6.283979   6.651364   6.977435   6.947706   6.587384
    20  H    5.082564   5.588757   6.377994   6.679685   6.252243
    21  H    3.497415   4.503177   5.505011   5.675455   4.907455
    22  H    3.344923   4.543249   4.882498   4.192100   2.854021
    23  H    1.088385   2.146468   3.393022   3.866908   3.391318
    24  H    2.155332   1.086601   2.153036   3.393178   3.866852
    25  H    3.400531   2.152138   1.086534   2.153582   3.402625
    26  H    3.865420   3.392079   2.151520   1.086773   2.157479
    27  H    3.391667   3.867904   3.393417   2.146101   1.087798
                   16         17         18         19         20
    16  H    0.000000
    17  H    2.763440   0.000000
    18  H    4.927334   2.466249   0.000000
    19  H    5.948466   4.289883   2.481340   0.000000
    20  H    5.442513   4.954594   4.292774   2.482112   0.000000
    21  H    3.600854   4.301528   4.953668   4.288784   2.464512
    22  H    2.468904   4.123765   6.361874   7.346278   6.611783
    23  H    4.498112   5.437449   6.607533   6.351191   4.766826
    24  H    6.605713   6.780647   7.448084   6.977401   5.680314
    25  H    7.346391   6.852244   7.450867   7.526998   7.010597
    26  H    6.368314   5.584450   6.587945   7.481515   7.498200
    27  H    4.133735   3.823307   5.599424   6.885306   6.822839
                   21         22         23         24         25
    21  H    0.000000
    22  H    4.506834   0.000000
    23  H    2.946663   3.609540   0.000000
    24  H    4.785375   5.448126   2.464327   0.000000
    25  H    6.388023   5.948625   4.288703   2.482116   0.000000
    26  H    6.651375   4.921421   4.953662   4.292752   2.481347
    27  H    5.474586   2.752839   4.301593   4.954498   4.289805
                   26         27
    26  H    0.000000
    27  H    2.466154   0.000000
 Stoichiometry    C14H12O
 Framework group  C1[X(C14H12O)]
 Deg. of freedom    75
 Full point group                 C1      NOp   1
 Largest Abelian subgroup         C1      NOp   1
 Largest concise Abelian subgroup C1      NOp   1
                         Standard orientation:                         
 ---------------------------------------------------------------------
 Center     Atomic      Atomic             Coordinates (Angstroms)
 Number     Number       Type             X           Y           Z
 ---------------------------------------------------------------------
      1          8           0       -0.002001    2.389301   -0.781676
      2          6           0       -0.759387    1.906389    0.340531
      3          6           0       -1.572451    0.646151    0.162550
      4          6           0       -2.094366   -0.030883    1.278782
      5          6           0       -2.879245   -1.179196    1.136792
      6          6           0       -3.155656   -1.681207   -0.131199
      7          6           0       -2.650499   -1.033734   -1.254109
      8          6           0       -1.874279    0.118709   -1.105210
      9          6           0        0.760262    1.906540    0.337214
     10          6           0        1.572807    0.646213    0.156422
     11          6           0        1.853226    0.106788   -1.111211
     12          6           0        2.629185   -1.045537   -1.262577
     13          6           0        3.155680   -1.680903   -0.142568
     14          6           0        2.900745   -1.167001    1.125124
     15          6           0        2.115954   -0.018942    1.269754
     16          1           0       -1.232825    2.675442    0.945509
     17          1           0       -1.892234    0.346475    2.278809
     18          1           0       -3.274807   -1.678952    2.017042
     19          1           0       -3.763529   -2.574596   -0.244820
     20          1           0       -2.859243   -1.420745   -2.247761
     21          1           0       -1.492219    0.614330   -1.995695
     22          1           0        1.236073    2.675949    0.939897
     23          1           0        1.454361    0.592689   -1.999687
     24          1           0        2.821027   -1.441876   -2.255962
     25          1           0        3.763457   -2.574089   -0.258259
     26          1           0        3.313087   -1.657190    2.003056
     27          1           0        1.931001    0.367844    2.269501
 ---------------------------------------------------------------------
 Rotational constants (GHZ):           0.9297015           0.4431377           0.3871392
 Standard basis: 6-31G(d) (6D, 7F)
 There are   249 symmetry adapted cartesian basis functions of A   symmetry.
 There are   249 symmetry adapted basis functions of A   symmetry.
   249 basis functions,   468 primitive gaussians,   249 cartesian basis functions
    52 alpha electrons       52 beta electrons
       nuclear repulsion energy       895.5907394627 Hartrees.
 NAtoms=   27 NActive=   27 NUniq=   27 SFac= 1.00D+00 NAtFMM=   60 NAOKFM=F Big=F
 Integral buffers will be    131072 words long.
 Raffenetti 1 integral format.
 Two-electron integral symmetry is turned on.
 ------------------------------------------------------------------------------
 Polarizable Continuum Model (PCM)
 =================================
 Model                : PCM.
 Atomic radii         : SMD-Coulomb.
 Polarization charges : Total charges.
 Charge compensation  : None.
 Solution method      : On-the-fly selection.
 Cavity type          : VdW (van der Waals Surface) (Alpha=1.000).
 Cavity algorithm     : GePol (No added spheres)
                        Default sphere list used, NSphG=   27.
                        Lebedev-Laikov grids with approx.  5.0 points / Ang**2.
                        Smoothing algorithm: York/Karplus (Gamma=1.0000).
                        Polarization charges: spherical gaussians, with
                                              point-specific exponents (IZeta= 3).
                        Self-potential: point-specific (ISelfS= 7).
                        Self-field    : sphere-specific E.n sum rule (ISelfD= 2).
 1st derivatives      : Analytical E(r).r(x)/FMM algorithm (CHGder, D1EAlg=3).
                        Cavity 1st derivative terms included.
 Solvent              : Water, Eps=  78.355300 Eps(inf)=   1.777849
 ------------------------------------------------------------------------------
 ------------------------------------------------------------------------------
 Atomic radii for non-electrostatic terms: SMD-CDS.
 ------------------------------------------------------------------------------
 Nuclear repulsion after PCM non-electrostatic terms =      895.5983733004 Hartrees.
 One-electron integrals computed using PRISM.
 NBasis=   249 RedAO= T EigKep=  4.35D-04  NBF=   249
 NBsUse=   249 1.00D-06 EigRej= -1.00D+00 NBFU=   249
 ExpMin= 1.61D-01 ExpMax= 5.48D+03 ExpMxC= 8.25D+02 IAcc=3 IRadAn=         5 AccDes= 0.00D+00
 Harris functional with IExCor=  205 and IRadAn=       5 diagonalized for initial guess.
 HarFok:  IExCor=  205 AccDes= 0.00D+00 IRadAn=         5 IDoV= 1 UseB2=F ITyADJ=14
 ICtDFT=  3500011 ScaDFX=  1.000000  1.000000  1.000000  1.000000
 FoFCou: FMM=F IPFlag=           0 FMFlag=      100000 FMFlg1=           0
         NFxFlg=           0 DoJE=T BraDBF=F KetDBF=T FulRan=T
         wScrn=  0.000000 ICntrl=       500 IOpCl=  0 I1Cent=   200000004 NGrid=           0
         NMat0=    1 NMatS0=      1 NMatT0=    0 NMatD0=    1 NMtDS0=    0 NMtDT0=    0
 Petite list used in FoFCou.
 Requested convergence on RMS density matrix=1.00D-08 within 128 cycles.
 Requested convergence on MAX density matrix=1.00D-06.
 Requested convergence on             energy=1.00D-06.
 No special actions if energy rises.
 Inv3:  Mode=1 IEnd=    14035707.
 Iteration    1 A*A^-1 deviation from unit magnitude is 1.18D-14 for   1506.
 Iteration    1 A*A^-1 deviation from orthogonality  is 2.38D-14 for   2079   1506.
 Iteration    1 A^-1*A deviation from unit magnitude is 2.18D-14 for   1902.
 Iteration    1 A^-1*A deviation from orthogonality  is 7.61D-15 for   1903   1507.
 Error on total polarization charges =  0.04187
 SCF Done:  E(RHF) =  -611.975607930     A.U. after   13 cycles
            NFock= 13  Conv=0.74D-08     -V/T= 2.0023
 SMD-CDS (non-electrostatic) energy       (kcal/mol) =       4.79
 (included in total energy above)

 **********************************************************************

            Population analysis using the SCF Density.

 **********************************************************************

 Orbital symmetries:
       Occupied  (A) (A) (A) (A) (A) (A) (A) (A) (A) (A) (A) (A)
                 (A) (A) (A) (A) (A) (A) (A) (A) (A) (A) (A) (A)
                 (A) (A) (A) (A) (A) (A) (A) (A) (A) (A) (A) (A)
                 (A) (A) (A) (A) (A) (A) (A) (A) (A) (A) (A) (A)
                 (A) (A) (A) (A)
       Virtual   (A) (A) (A) (A) (A) (A) (A) (A) (A) (A) (A) (A)
                 (A) (A) (A) (A) (A) (A) (A) (A) (A) (A) (A) (A)
                 (A) (A) (A) (A) (A) (A) (A) (A) (A) (A) (A) (A)
                 (A) (A) (A) (A) (A) (A) (A) (A) (A) (A) (A) (A)
                 (A) (A) (A) (A) (A) (A) (A) (A) (A) (A) (A) (A)
                 (A) (A) (A) (A) (A) (A) (A) (A) (A) (A) (A) (A)
                 (A) (A) (A) (A) (A) (A) (A) (A) (A) (A) (A) (A)
                 (A) (A) (A) (A) (A) (A) (A) (A) (A) (A) (A) (A)
                 (A) (A) (A) (A) (A) (A) (A) (A) (A) (A) (A) (A)
                 (A) (A) (A) (A) (A) (A) (A) (A) (A) (A) (A) (A)
                 (A) (A) (A) (A) (A) (A) (A) (A) (A) (A) (A) (A)
                 (A) (A) (A) (A) (A) (A) (A) (A) (A) (A) (A) (A)
                 (A) (A) (A) (A) (A) (A) (A) (A) (A) (A) (A) (A)
                 (A) (A) (A) (A) (A) (A) (A) (A) (A) (A) (A) (A)
                 (A) (A) (A) (A) (A) (A) (A) (A) (A) (A) (A) (A)
                 (A) (A) (A) (A) (A) (A) (A) (A) (A) (A) (A) (A)
                 (A) (A) (A) (A) (A)
 The electronic state is 1-A.
 Alpha  occ. eigenvalues --  -20.59393 -11.30227 -11.30165 -11.25025 -11.25019
 Alpha  occ. eigenvalues --  -11.23683 -11.23681 -11.23553 -11.23552 -11.23413
 Alpha  occ. eigenvalues --  -11.23412 -11.23333 -11.23333 -11.23173 -11.23173
 Alpha  occ. eigenvalues --   -1.42034  -1.15028  -1.14932  -1.03613  -1.03001
 Alpha  occ. eigenvalues --   -1.00929  -1.00839  -0.92501  -0.88194  -0.82326
 Alpha  occ. eigenvalues --   -0.81956  -0.80567  -0.77703  -0.71438  -0.69037
 Alpha  occ. eigenvalues --   -0.68252  -0.64774  -0.62780  -0.62208  -0.61434
 Alpha  occ. eigenvalues --   -0.60604  -0.57799  -0.57720  -0.55924  -0.55024
 Alpha  occ. eigenvalues --   -0.51895  -0.50988  -0.49720  -0.48785  -0.48323
 Alpha  occ. eigenvalues --   -0.48267  -0.45962  -0.44531  -0.33815  -0.33208
 Alpha  occ. eigenvalues --   -0.32924  -0.32241
 Alpha virt. eigenvalues --    0.13123   0.13153   0.13665   0.15011   0.24439
 Alpha virt. eigenvalues --    0.25495   0.26623   0.28024   0.28483   0.30267
 Alpha virt. eigenvalues --    0.30860   0.30967   0.33126   0.33210   0.34295
 Alpha virt. eigenvalues --    0.35505   0.36640   0.37062   0.37087   0.38797
 Alpha virt. eigenvalues --    0.41568   0.45404   0.46150   0.48597   0.48753
 Alpha virt. eigenvalues --    0.49004   0.50844   0.51119   0.52037   0.56766
 Alpha virt. eigenvalues --    0.58846   0.66839   0.68095   0.68528   0.71041
 Alpha virt. eigenvalues --    0.73264   0.74337   0.74827   0.76285   0.76650
 Alpha virt. eigenvalues --    0.77523   0.77922   0.78904   0.79304   0.81130
 Alpha virt. eigenvalues --    0.81633   0.82415   0.83636   0.83669   0.84432
 Alpha virt. eigenvalues --    0.84549   0.84847   0.85072   0.86012   0.87688
 Alpha virt. eigenvalues --    0.89882   0.89895   0.90373   0.91459   0.91667
 Alpha virt. eigenvalues --    0.97483   0.97994   1.02868   1.03158   1.07435
 Alpha virt. eigenvalues --    1.07523   1.08377   1.08728   1.10911   1.11354
 Alpha virt. eigenvalues --    1.11654   1.11846   1.12344   1.12634   1.13483
 Alpha virt. eigenvalues --    1.14610   1.15741   1.16959   1.18809   1.19966
 Alpha virt. eigenvalues --    1.21262   1.21330   1.21997   1.23066   1.25506
 Alpha virt. eigenvalues --    1.27706   1.30836   1.32254   1.34068   1.34474
 Alpha virt. eigenvalues --    1.39137   1.41634   1.41862   1.44458   1.44707
 Alpha virt. eigenvalues --    1.46252   1.48361   1.51080   1.51544   1.52908
 Alpha virt. eigenvalues --    1.60682   1.65890   1.67449   1.68289   1.69978
 Alpha virt. eigenvalues --    1.72302   1.74259   1.75727   1.76857   1.77181
 Alpha virt. eigenvalues --    1.77635   1.78679   1.79451   1.79970   1.80749
 Alpha virt. eigenvalues --    1.85577   1.89864   1.92981   1.98883   2.03081
 Alpha virt. eigenvalues --    2.08152   2.09502   2.10171   2.13393   2.13694
 Alpha virt. eigenvalues --    2.14550   2.17287   2.18177   2.22060   2.24751
 Alpha virt. eigenvalues --    2.27131   2.30424   2.31562   2.34378   2.35211
 Alpha virt. eigenvalues --    2.37778   2.37883   2.41373   2.42712   2.44912
 Alpha virt. eigenvalues --    2.44942   2.45935   2.47827   2.48479   2.48891
 Alpha virt. eigenvalues --    2.49298   2.51772   2.54843   2.58282   2.61205
 Alpha virt. eigenvalues --    2.62845   2.63343   2.63709   2.65858   2.66131
 Alpha virt. eigenvalues --    2.71255   2.76045   2.79494   2.84283   2.89892
 Alpha virt. eigenvalues --    2.91378   2.92528   2.93623   2.99410   3.00237
 Alpha virt. eigenvalues --    3.02477   3.06245   3.06925   3.08934   3.09505
 Alpha virt. eigenvalues --    3.11570   3.11684   3.15212   3.16942   3.17037
 Alpha virt. eigenvalues --    3.28290   3.32407   3.33814   3.44530   3.46358
 Alpha virt. eigenvalues --    3.77507   3.79489   4.35921   4.47814   4.52160
 Alpha virt. eigenvalues --    4.52710   4.53162   4.54845   4.60761   4.64224
 Alpha virt. eigenvalues --    4.74483   4.77192   4.82033   4.84678   4.97894
 Alpha virt. eigenvalues --    5.10430   5.17387
          Condensed to atoms (all electrons):
               1          2          3          4          5          6
     1  O    8.486895   0.127800  -0.028655   0.001737  -0.000034  -0.000004
     2  C    0.127800   4.843055   0.372320  -0.045071   0.002323   0.000006
     3  C   -0.028655   0.372320   4.857101   0.538270  -0.041716  -0.025035
     4  C    0.001737  -0.045071   0.538270   4.976026   0.539134  -0.052206
     5  C   -0.000034   0.002323  -0.041716   0.539134   4.940367   0.543577
     6  C   -0.000004   0.000006  -0.025035  -0.052206   0.543577   4.940599
     7  C    0.000291   0.002147  -0.045072  -0.032847  -0.049840   0.544979
     8  C   -0.001263  -0.039093   0.548585  -0.043157  -0.033473  -0.051442
     9  C    0.127789   0.331080  -0.049668  -0.002921   0.000060   0.000017
    10  C   -0.028591  -0.049668  -0.000500   0.000391  -0.000038   0.000008
    11  C   -0.001220  -0.000548   0.000914   0.000012  -0.000014   0.000001
    12  C    0.000296  -0.000071  -0.000084  -0.000003   0.000002   0.000000
    13  C   -0.000004   0.000017   0.000008  -0.000000   0.000000  -0.000000
    14  C   -0.000034   0.000056  -0.000039  -0.000011  -0.000002   0.000000
    15  C    0.001737  -0.002864   0.000329   0.000609  -0.000012  -0.000000
    16  H   -0.021208   0.390530  -0.036608   0.000309  -0.000085   0.000010
    17  H   -0.000016  -0.000228  -0.033970   0.381482  -0.027378   0.002404
    18  H    0.000000  -0.000074   0.001558  -0.027328   0.382690  -0.028291
    19  H   -0.000000   0.000005   0.000187   0.002403  -0.028355   0.381958
    20  H    0.000001  -0.000081   0.001786   0.000183   0.002333  -0.028215
    21  H    0.004984  -0.003581  -0.031411   0.002787   0.000053   0.002386
    22  H   -0.021205  -0.024494   0.001013   0.000075  -0.000001  -0.000000
    23  H    0.005051  -0.000011  -0.000003   0.000001  -0.000001   0.000001
    24  H    0.000001   0.000001  -0.000001  -0.000000   0.000000   0.000000
    25  H   -0.000000  -0.000000   0.000000  -0.000000  -0.000000  -0.000000
    26  H    0.000000   0.000000  -0.000000  -0.000000   0.000000   0.000000
    27  H   -0.000015   0.000287  -0.000009   0.000039   0.000000   0.000000
               7          8          9         10         11         12
     1  O    0.000291  -0.001263   0.127789  -0.028591  -0.001220   0.000296
     2  C    0.002147  -0.039093   0.331080  -0.049668  -0.000548  -0.000071
     3  C   -0.045072   0.548585  -0.049668  -0.000500   0.000914  -0.000084
     4  C   -0.032847  -0.043157  -0.002921   0.000391   0.000012  -0.000003
     5  C   -0.049840  -0.033473   0.000060  -0.000038  -0.000014   0.000002
     6  C    0.544979  -0.051442   0.000017   0.000008   0.000001   0.000000
     7  C    4.946804   0.533026  -0.000070  -0.000082  -0.000045  -0.000018
     8  C    0.533026   4.970116  -0.000424   0.000820   0.000813  -0.000047
     9  C   -0.000070  -0.000424   4.842597   0.372298  -0.039109   0.002140
    10  C   -0.000082   0.000820   0.372298   4.856912   0.548573  -0.045054
    11  C   -0.000045   0.000813  -0.039109   0.548573   4.970602   0.532840
    12  C   -0.000018  -0.000047   0.002140  -0.045054   0.532840   4.946983
    13  C    0.000000   0.000002   0.000005  -0.025028  -0.051439   0.544959
    14  C    0.000001  -0.000012   0.002317  -0.041666  -0.033479  -0.049863
    15  C   -0.000003   0.000012  -0.044953   0.538158  -0.043173  -0.032828
    16  H   -0.000015   0.001353  -0.024558   0.001008   0.000020   0.000002
    17  H    0.000090   0.002647   0.000300  -0.000009   0.000000  -0.000000
    18  H    0.002381   0.000160   0.000000  -0.000000  -0.000000   0.000000
    19  H   -0.028560   0.002382  -0.000000   0.000000   0.000000   0.000000
    20  H    0.383036  -0.028162   0.000001  -0.000001  -0.000005   0.000000
    21  H   -0.028153   0.380342  -0.000010  -0.000002   0.000120   0.000007
    22  H    0.000002   0.000017   0.390675  -0.036745   0.001414  -0.000014
    23  H    0.000009   0.000165  -0.003600  -0.031368   0.380271  -0.028154
    24  H    0.000000  -0.000005  -0.000081   0.001784  -0.028168   0.383049
    25  H    0.000000   0.000000   0.000005   0.000187   0.002382  -0.028562
    26  H    0.000000  -0.000000  -0.000074   0.001554   0.000159   0.002381
    27  H   -0.000000   0.000000  -0.000235  -0.033950   0.002648   0.000091
              13         14         15         16         17         18
     1  O   -0.000004  -0.000034   0.001737  -0.021208  -0.000016   0.000000
     2  C    0.000017   0.000056  -0.002864   0.390530  -0.000228  -0.000074
     3  C    0.000008  -0.000039   0.000329  -0.036608  -0.033970   0.001558
     4  C   -0.000000  -0.000011   0.000609   0.000309   0.381482  -0.027328
     5  C    0.000000  -0.000002  -0.000012  -0.000085  -0.027378   0.382690
     6  C   -0.000000   0.000000  -0.000000   0.000010   0.002404  -0.028291
     7  C    0.000000   0.000001  -0.000003  -0.000015   0.000090   0.002381
     8  C    0.000002  -0.000012   0.000012   0.001353   0.002647   0.000160
     9  C    0.000005   0.002317  -0.044953  -0.024558   0.000300   0.000000
    10  C   -0.025028  -0.041666   0.538158   0.001008  -0.000009  -0.000000
    11  C   -0.051439  -0.033479  -0.043173   0.000020   0.000000  -0.000000
    12  C    0.544959  -0.049863  -0.032828   0.000002  -0.000000   0.000000
    13  C    4.940707   0.543568  -0.052219  -0.000000   0.000000   0.000000
    14  C    0.543568   4.940352   0.539155  -0.000001   0.000000   0.000000
    15  C   -0.052219   0.539155   4.976284   0.000075   0.000045  -0.000000
    16  H   -0.000000  -0.000001   0.000075   0.442622   0.001161   0.000000
    17  H    0.000000   0.000000   0.000045   0.001161   0.437469  -0.001287
    18  H    0.000000   0.000000  -0.000000   0.000000  -0.001287   0.433025
    19  H   -0.000000   0.000000  -0.000000  -0.000000  -0.000091  -0.001206
    20  H    0.000000   0.000000  -0.000000   0.000001   0.000009  -0.000093
    21  H    0.000001  -0.000001   0.000001   0.000115  -0.000089   0.000008
    22  H    0.000010  -0.000082   0.000313   0.000599  -0.000007  -0.000000
    23  H    0.002385   0.000052   0.002794   0.000008   0.000000  -0.000000
    24  H   -0.028214   0.002334   0.000183  -0.000000   0.000000  -0.000000
    25  H    0.381959  -0.028351   0.002403   0.000000  -0.000000   0.000000
    26  H   -0.028289   0.382697  -0.027325  -0.000000  -0.000000  -0.000000
    27  H    0.002404  -0.027389   0.381467  -0.000006   0.000047  -0.000000
              19         20         21         22         23         24
     1  O   -0.000000   0.000001   0.004984  -0.021205   0.005051   0.000001
     2  C    0.000005  -0.000081  -0.003581  -0.024494  -0.000011   0.000001
     3  C    0.000187   0.001786  -0.031411   0.001013  -0.000003  -0.000001
     4  C    0.002403   0.000183   0.002787   0.000075   0.000001  -0.000000
     5  C   -0.028355   0.002333   0.000053  -0.000001  -0.000001   0.000000
     6  C    0.381958  -0.028215   0.002386  -0.000000   0.000001   0.000000
     7  C   -0.028560   0.383036  -0.028153   0.000002   0.000009   0.000000
     8  C    0.002382  -0.028162   0.380342   0.000017   0.000165  -0.000005
     9  C   -0.000000   0.000001  -0.000010   0.390675  -0.003600  -0.000081
    10  C    0.000000  -0.000001  -0.000002  -0.036745  -0.031368   0.001784
    11  C    0.000000  -0.000005   0.000120   0.001414   0.380271  -0.028168
    12  C    0.000000   0.000000   0.000007  -0.000014  -0.028154   0.383049
    13  C   -0.000000   0.000000   0.000001   0.000010   0.002385  -0.028214
    14  C    0.000000   0.000000  -0.000001  -0.000082   0.000052   0.002334
    15  C   -0.000000  -0.000000   0.000001   0.000313   0.002794   0.000183
    16  H   -0.000000   0.000001   0.000115   0.000599   0.000008  -0.000000
    17  H   -0.000091   0.000009  -0.000089  -0.000007   0.000000   0.000000
    18  H   -0.001206  -0.000093   0.000008  -0.000000  -0.000000  -0.000000
    19  H    0.437391  -0.001227  -0.000090   0.000000  -0.000000   0.000000
    20  H   -0.001227   0.433674  -0.001191  -0.000000  -0.000001   0.000000
    21  H   -0.000090  -0.001191   0.434954   0.000007   0.000544  -0.000001
    22  H    0.000000  -0.000000   0.000007   0.442425   0.000113   0.000001
    23  H   -0.000000  -0.000001   0.000544   0.000113   0.434877  -0.001191
    24  H    0.000000   0.000000  -0.000001   0.000001  -0.001191   0.433647
    25  H   -0.000000   0.000000  -0.000000  -0.000000  -0.000090  -0.001227
    26  H    0.000000  -0.000000  -0.000000  -0.000000   0.000008  -0.000093
    27  H   -0.000000   0.000000   0.000000   0.001197  -0.000089   0.000009
              25         26         27
     1  O   -0.000000   0.000000  -0.000015
     2  C   -0.000000   0.000000   0.000287
     3  C    0.000000  -0.000000  -0.000009
     4  C   -0.000000  -0.000000   0.000039
     5  C   -0.000000   0.000000   0.000000
     6  C   -0.000000   0.000000   0.000000
     7  C    0.000000   0.000000  -0.000000
     8  C    0.000000  -0.000000   0.000000
     9  C    0.000005  -0.000074  -0.000235
    10  C    0.000187   0.001554  -0.033950
    11  C    0.002382   0.000159   0.002648
    12  C   -0.028562   0.002381   0.000091
    13  C    0.381959  -0.028289   0.002404
    14  C   -0.028351   0.382697  -0.027389
    15  C    0.002403  -0.027325   0.381467
    16  H    0.000000  -0.000000  -0.000006
    17  H   -0.000000  -0.000000   0.000047
    18  H    0.000000  -0.000000  -0.000000
    19  H   -0.000000   0.000000  -0.000000
    20  H    0.000000  -0.000000   0.000000
    21  H   -0.000000  -0.000000   0.000000
    22  H   -0.000000  -0.000000   0.001197
    23  H   -0.000090   0.000008  -0.000089
    24  H   -0.001227  -0.000093   0.000009
    25  H    0.437377  -0.001206  -0.000091
    26  H   -0.001206   0.432981  -0.001286
    27  H   -0.000091  -0.001286   0.437430
 Mulliken charges:
               1
     1  O   -0.654333
     2  C    0.096161
     3  C   -0.029298
     4  C   -0.239914
     5  C   -0.229589
     6  C   -0.230753
     7  C   -0.228062
     8  C   -0.243363
     9  C    0.096416
    10  C   -0.028992
    11  C   -0.243569
    12  C   -0.228051
    13  C   -0.230832
    14  C   -0.229605
    15  C   -0.240186
    16  H    0.244668
    17  H    0.237418
    18  H    0.238458
    19  H    0.235205
    20  H    0.237953
    21  H    0.238218
    22  H    0.244687
    23  H    0.238228
    24  H    0.237973
    25  H    0.235217
    26  H    0.238493
    27  H    0.237453
 Sum of Mulliken charges =  -0.00000
 Mulliken charges with hydrogens summed into heavy atoms:
               1
     1  O   -0.654333
     2  C    0.340829
     3  C   -0.029298
     4  C   -0.002496
     5  C    0.008869
     6  C    0.004453
     7  C    0.009890
     8  C   -0.005144
     9  C    0.341104
    10  C   -0.028992
    11  C   -0.005341
    12  C    0.009922
    13  C    0.004385
    14  C    0.008887
    15  C   -0.002734
 Electronic spatial extent (au):  <R**2>=           3130.5059
 Charge=             -0.0000 electrons
 Dipole moment (field-independent basis, Debye):
    X=              0.0036    Y=             -1.3892    Z=              2.7322  Tot=              3.0651
 Quadrupole moment (field-independent basis, Debye-Ang):
   XX=            -84.1098   YY=            -84.7279   ZZ=            -76.3719
   XY=              0.0169   XZ=              0.1531   YZ=              7.7725
 Traceless Quadrupole moment (field-independent basis, Debye-Ang):
   XX=             -2.3733   YY=             -2.9914   ZZ=              5.3646
   XY=              0.0169   XZ=              0.1531   YZ=              7.7725
 Octapole moment (field-independent basis, Debye-Ang**2):
  XXX=              0.2528  YYY=             -5.4643  ZZZ=              0.7298  XYY=             -0.0003
  XXY=            -34.6281  XXZ=              5.7392  XZZ=             -0.0675  YZZ=             -5.0999
  YYZ=             17.7077  XYZ=              0.2038
 Hexadecapole moment (field-independent basis, Debye-Ang**3):
 XXXX=          -2769.0348 YYYY=          -1001.9320 ZZZZ=           -551.0615 XXXY=             -0.2476
 XXXZ=              3.2502 YYYX=              0.2272 YYYZ=             49.9817 ZZZX=              0.7252
 ZZZY=              5.9722 XXYY=           -504.2051 XXZZ=           -485.7639 YYZZ=           -259.7661
 XXYZ=              1.8774 YYXZ=             -0.4363 ZZXY=              0.0925
 N-N= 8.955983733004D+02 E-N=-3.219519315511D+03  KE= 6.105454720676D+02
 D1PCM: PCM CHGder 1st derivatives, ID1Alg=3 FixD1E=F DoIter=F DoCFld=F I1PDM=0.
 Calling FoFJK, ICntrl=      2127 FMM=F ISym2X=0 I1Cent= 0 IOpClX= 0 NMat=1 NMatS=1 NMatT=0.
 ***** Axes restored to original set *****
 -------------------------------------------------------------------
 Center     Atomic                   Forces (Hartrees/Bohr)
 Number     Number              X              Y              Z
 -------------------------------------------------------------------
      1        8          -0.000008481   -0.004086085   -0.027265686
      2        6          -0.034730950   -0.006381335    0.001348889
      3        6           0.010491009   -0.012921248    0.005456818
      4        6          -0.001386993    0.004959961   -0.002019842
      5        6          -0.003801618    0.005115673    0.000443256
      6        6           0.001739022   -0.003147131    0.001035237
      7        6          -0.002380508    0.003985256   -0.001558721
      8        6          -0.005794408    0.005310475    0.002973893
      9        6           0.034712486   -0.006421014    0.001192530
     10        6          -0.010467373   -0.012850841    0.005476772
     11        6           0.005856934    0.005246615    0.003012186
     12        6           0.002371798    0.004034443   -0.001568774
     13        6          -0.001725170   -0.003183154    0.001045072
     14        6           0.003842808    0.005124961    0.000417426
     15        6           0.001344991    0.005002339   -0.001980352
     16        1          -0.003658177   -0.004150355    0.007791726
     17        1           0.001212222   -0.003429742    0.007300613
     18        1          -0.003961521    0.003688805    0.007170602
     19        1          -0.004641713    0.006938694   -0.000054107
     20        1          -0.001804662    0.004940888   -0.007042481
     21        1           0.003679796   -0.002876854   -0.009135987
     22        1           0.003675233   -0.004216092    0.007745753
     23        1          -0.003861506   -0.002789545   -0.009125283
     24        1           0.001681344    0.005015725   -0.007025798
     25        1           0.004626134    0.006945666   -0.000065834
     26        1           0.004081482    0.003629749    0.007140116
     27        1          -0.001092178   -0.003485854    0.007291975
 -------------------------------------------------------------------
 Cartesian Forces:  Max     0.034730950 RMS     0.008021450

 GradGradGradGradGradGradGradGradGradGradGradGradGradGradGradGradGradGrad
 Berny optimization.
 FormGI is forming the generalized inverse of G from B-inverse, IUseBI=4.
 Internal  Forces:  Max     0.033154169 RMS     0.006273563
 Search for a local minimum.
 Step number   1 out of a maximum of  149
 All quantities printed in internal units (Hartrees-Bohrs-Radians)
 Mixed Optimization -- RFO/linear search
 Second derivative matrix not updated -- first step.
 ITU=  0
     Eigenvalues ---    0.00628   0.00630   0.01441   0.01442   0.02026
     Eigenvalues ---    0.02026   0.02059   0.02060   0.02070   0.02070
     Eigenvalues ---    0.02113   0.02113   0.02154   0.02154   0.02164
     Eigenvalues ---    0.02164   0.02183   0.02183   0.02204   0.02204
     Eigenvalues ---    0.02276   0.02607   0.03403   0.14545   0.14575
     Eigenvalues ---    0.16000   0.16000   0.16000   0.16000   0.16000
     Eigenvalues ---    0.16000   0.16000   0.16000   0.16000   0.16000
     Eigenvalues ---    0.16795   0.17683   0.21334   0.22000   0.22000
     Eigenvalues ---    0.22000   0.22000   0.23457   0.23457   0.24987
     Eigenvalues ---    0.24987   0.28641   0.31117   0.31309   0.31322
     Eigenvalues ---    0.35000   0.35000   0.35068   0.35068   0.35159
     Eigenvalues ---    0.35161   0.35188   0.35189   0.35208   0.35209
     Eigenvalues ---    0.35216   0.35216   0.38644   0.41478   0.41481
     Eigenvalues ---    0.41667   0.41670   0.44980   0.44984   0.45987
     Eigenvalues ---    0.45990   0.46147   0.46148   0.46919   0.46922
 RFO step:  Lambda=-1.61000786D-02 EMin= 6.28245558D-03
 Linear search not attempted -- first point.
 Iteration  1 RMS(Cart)=  0.04660884 RMS(Int)=  0.00050510
 Iteration  2 RMS(Cart)=  0.00143378 RMS(Int)=  0.00021209
 Iteration  3 RMS(Cart)=  0.00000070 RMS(Int)=  0.00021209
 Variable       Old X    -DE/DX   Delta X   Delta X   Delta X     New X
                                 (Linear)    (Quad)   (Total)
    R1        2.71634  -0.01794   0.00000  -0.04192  -0.04186   2.67447
    R2        2.71623  -0.01790   0.00000  -0.04181  -0.04176   2.67447
    R3        2.85402  -0.01420   0.00000  -0.04312  -0.04312   2.81090
    R4        2.87173  -0.03315   0.00000  -0.10667  -0.10677   2.76496
    R5        2.05415  -0.00830   0.00000  -0.02258  -0.02258   2.03156
    R6        2.65689  -0.01526   0.00000  -0.03368  -0.03361   2.62328
    R7        2.65674  -0.01620   0.00000  -0.03559  -0.03552   2.62121
    R8        2.64212  -0.01421   0.00000  -0.02998  -0.02998   2.61214
    R9        2.05564  -0.00813   0.00000  -0.02217  -0.02217   2.03347
   R10        2.62952  -0.00495   0.00000  -0.00960  -0.00967   2.61985
   R11        2.05370  -0.00891   0.00000  -0.02421  -0.02421   2.02948
   R12        2.62891  -0.00573   0.00000  -0.01110  -0.01117   2.61775
   R13        2.05326  -0.00835   0.00000  -0.02266  -0.02266   2.03060
   R14        2.64076  -0.01196   0.00000  -0.02500  -0.02500   2.61577
   R15        2.05337  -0.00875   0.00000  -0.02377  -0.02377   2.02960
   R16        2.05674  -0.01025   0.00000  -0.02799  -0.02799   2.02875
   R17        2.85426  -0.01431   0.00000  -0.04347  -0.04347   2.81079
   R18        2.05417  -0.00834   0.00000  -0.02267  -0.02267   2.03150
   R19        2.65673  -0.01616   0.00000  -0.03551  -0.03544   2.62129
   R20        2.65703  -0.01531   0.00000  -0.03380  -0.03372   2.62331
   R21        2.64081  -0.01198   0.00000  -0.02505  -0.02505   2.61576
   R22        2.05675  -0.01028   0.00000  -0.02808  -0.02808   2.02867
   R23        2.62890  -0.00571   0.00000  -0.01106  -0.01113   2.61777
   R24        2.05338  -0.00876   0.00000  -0.02379  -0.02379   2.02959
   R25        2.62946  -0.00493   0.00000  -0.00956  -0.00963   2.61983
   R26        2.05325  -0.00834   0.00000  -0.02265  -0.02265   2.03060
   R27        2.64214  -0.01424   0.00000  -0.03004  -0.03004   2.61210
   R28        2.05370  -0.00891   0.00000  -0.02422  -0.02422   2.02948
   R29        2.05564  -0.00813   0.00000  -0.02216  -0.02216   2.03348
    A1        2.06235  -0.00135   0.00000  -0.01370  -0.01413   2.04821
    A2        2.01120  -0.00269   0.00000  -0.03855  -0.03927   1.97193
    A3        2.13907  -0.00004   0.00000   0.01180   0.01129   2.15035
    A4        2.00587   0.00113   0.00000   0.00451   0.00336   2.00922
    A5        2.02271  -0.00011   0.00000   0.01487   0.01428   2.03699
    A6        2.10378  -0.00778   0.00000  -0.02836  -0.02844   2.07534
    A7        2.13519  -0.00257   0.00000  -0.00879  -0.00887   2.12632
    A8        2.04381   0.01035   0.00000   0.03731   0.03745   2.08126
    A9        2.12147  -0.00435   0.00000  -0.01921  -0.01915   2.10232
   A10        2.08729   0.00152   0.00000   0.00588   0.00584   2.09313
   A11        2.07440   0.00284   0.00000   0.01338   0.01333   2.08774
   A12        2.09482   0.00001   0.00000   0.00184   0.00176   2.09658
   A13        2.09411  -0.00116   0.00000  -0.00749  -0.00745   2.08666
   A14        2.09426   0.00115   0.00000   0.00565   0.00569   2.09994
   A15        2.08920  -0.00106   0.00000  -0.00109  -0.00123   2.08797
   A16        2.09794   0.00031   0.00000  -0.00068  -0.00061   2.09733
   A17        2.09604   0.00074   0.00000   0.00177   0.00184   2.09788
   A18        2.09384   0.00033   0.00000   0.00376   0.00368   2.09752
   A19        2.09741   0.00059   0.00000   0.00237   0.00241   2.09982
   A20        2.09194  -0.00091   0.00000  -0.00613  -0.00609   2.08585
   A21        2.12319  -0.00527   0.00000  -0.02255  -0.02249   2.10070
   A22        2.08471   0.00221   0.00000   0.00889   0.00885   2.09355
   A23        2.07527   0.00306   0.00000   0.01369   0.01365   2.08892
   A24        2.06278  -0.00132   0.00000  -0.01363  -0.01407   2.04871
   A25        2.01085  -0.00267   0.00000  -0.03818  -0.03889   1.97196
   A26        2.13903   0.00001   0.00000   0.01205   0.01155   2.15058
   A27        2.02259  -0.00011   0.00000   0.01480   0.01422   2.03681
   A28        2.00590   0.00107   0.00000   0.00419   0.00304   2.00895
   A29        2.13577  -0.00251   0.00000  -0.00856  -0.00864   2.12713
   A30        2.10340  -0.00786   0.00000  -0.02868  -0.02875   2.07464
   A31        2.04361   0.01038   0.00000   0.03741   0.03754   2.08115
   A32        2.12328  -0.00530   0.00000  -0.02267  -0.02261   2.10067
   A33        2.08479   0.00223   0.00000   0.00896   0.00892   2.09371
   A34        2.07510   0.00307   0.00000   0.01374   0.01370   2.08880
   A35        2.09387   0.00034   0.00000   0.00382   0.00374   2.09761
   A36        2.09189  -0.00092   0.00000  -0.00617  -0.00613   2.08576
   A37        2.09742   0.00058   0.00000   0.00235   0.00239   2.09982
   A38        2.08917  -0.00106   0.00000  -0.00111  -0.00126   2.08791
   A39        2.09604   0.00075   0.00000   0.00180   0.00187   2.09791
   A40        2.09798   0.00031   0.00000  -0.00069  -0.00062   2.09736
   A41        2.09479   0.00001   0.00000   0.00183   0.00176   2.09655
   A42        2.09426   0.00116   0.00000   0.00569   0.00573   2.09999
   A43        2.09413  -0.00117   0.00000  -0.00753  -0.00749   2.08664
   A44        2.12160  -0.00435   0.00000  -0.01921  -0.01915   2.10244
   A45        2.08729   0.00151   0.00000   0.00583   0.00578   2.09308
   A46        2.07427   0.00285   0.00000   0.01344   0.01340   2.08766
    D1        2.90058   0.00293   0.00000   0.04334   0.04309   2.94367
    D2       -0.27290   0.00326   0.00000   0.04998   0.04962  -0.22328
    D3        1.70836  -0.00022   0.00000   0.02936   0.02954   1.73789
    D4       -1.46512   0.00011   0.00000   0.03600   0.03606  -1.42906
    D5       -0.91384  -0.00225   0.00000  -0.03958  -0.03933  -0.95317
    D6        2.19587  -0.00191   0.00000  -0.03294  -0.03281   2.16306
    D7       -0.00060   0.00000   0.00000   0.00006   0.00007  -0.00054
    D8       -2.61794  -0.00236   0.00000  -0.06624  -0.06642  -2.68436
    D9        2.61699   0.00238   0.00000   0.06678   0.06695   2.68395
   D10       -0.00034   0.00002   0.00000   0.00047   0.00047   0.00013
   D11        3.11173   0.00042   0.00000   0.01235   0.01234   3.12406
   D12       -0.02222   0.00010   0.00000   0.00418   0.00423  -0.01799
   D13        0.00040   0.00031   0.00000   0.00680   0.00677   0.00717
   D14       -3.13355  -0.00001   0.00000  -0.00137  -0.00134  -3.13489
   D15       -3.11886  -0.00004   0.00000  -0.00406  -0.00414  -3.12300
   D16        0.02772  -0.00029   0.00000  -0.01081  -0.01086   0.01686
   D17       -0.00812  -0.00002   0.00000   0.00125   0.00127  -0.00685
   D18        3.13847  -0.00028   0.00000  -0.00549  -0.00546   3.13301
   D19        0.00496  -0.00033   0.00000  -0.00858  -0.00852  -0.00356
   D20       -3.13501  -0.00031   0.00000  -0.00791  -0.00785   3.14033
   D21        3.13896  -0.00002   0.00000  -0.00050  -0.00047   3.13849
   D22       -0.00101  -0.00000   0.00000   0.00016   0.00021  -0.00080
   D23       -0.00268   0.00006   0.00000   0.00217   0.00226  -0.00043
   D24        3.13932   0.00014   0.00000   0.00402   0.00407  -3.13979
   D25        3.13729   0.00004   0.00000   0.00150   0.00157   3.13885
   D26       -0.00389   0.00012   0.00000   0.00334   0.00338  -0.00051
   D27       -0.00488   0.00020   0.00000   0.00558   0.00562   0.00074
   D28        3.13854   0.00019   0.00000   0.00490   0.00489  -3.13975
   D29        3.13629   0.00012   0.00000   0.00374   0.00380   3.14010
   D30       -0.00347   0.00011   0.00000   0.00305   0.00308  -0.00039
   D31        0.01051  -0.00027   0.00000  -0.00754  -0.00757   0.00294
   D32       -3.13605  -0.00001   0.00000  -0.00084  -0.00087  -3.13692
   D33       -3.13291  -0.00026   0.00000  -0.00685  -0.00684  -3.13975
   D34        0.00371  -0.00000   0.00000  -0.00015  -0.00014   0.00357
   D35        0.25618  -0.00327   0.00000  -0.05009  -0.04972   0.20646
   D36       -2.91713  -0.00292   0.00000  -0.04291  -0.04267  -2.95979
   D37        1.44867  -0.00012   0.00000  -0.03605  -0.03611   1.41256
   D38       -1.72464   0.00023   0.00000  -0.02888  -0.02906  -1.75369
   D39       -2.21262   0.00190   0.00000   0.03255   0.03242  -2.18020
   D40        0.89726   0.00225   0.00000   0.03973   0.03948   0.93674
   D41        3.11891   0.00006   0.00000   0.00474   0.00482   3.12373
   D42       -0.02770   0.00032   0.00000   0.01161   0.01167  -0.01602
   D43        0.00800   0.00003   0.00000  -0.00110  -0.00112   0.00688
   D44       -3.13860   0.00029   0.00000   0.00577   0.00574  -3.13287
   D45       -3.11172  -0.00045   0.00000  -0.01321  -0.01320  -3.12492
   D46        0.02191  -0.00012   0.00000  -0.00485  -0.00489   0.01702
   D47       -0.00021  -0.00032   0.00000  -0.00714  -0.00711  -0.00733
   D48        3.13342   0.00000   0.00000   0.00122   0.00119   3.13461
   D49       -0.01051   0.00027   0.00000   0.00762   0.00765  -0.00286
   D50        3.13293   0.00026   0.00000   0.00688   0.00687   3.13980
   D51        3.13607   0.00001   0.00000   0.00079   0.00083   3.13689
   D52       -0.00368  -0.00000   0.00000   0.00006   0.00005  -0.00363
   D53        0.00495  -0.00021   0.00000  -0.00571  -0.00575  -0.00080
   D54       -3.13618  -0.00012   0.00000  -0.00375  -0.00382  -3.14000
   D55       -3.13850  -0.00020   0.00000  -0.00498  -0.00497   3.13972
   D56        0.00357  -0.00011   0.00000  -0.00302  -0.00305   0.00052
   D57        0.00268  -0.00006   0.00000  -0.00223  -0.00231   0.00037
   D58       -3.13718  -0.00004   0.00000  -0.00139  -0.00147  -3.13864
   D59       -3.13938  -0.00014   0.00000  -0.00418  -0.00424   3.13957
   D60        0.00394  -0.00012   0.00000  -0.00335  -0.00339   0.00055
   D61       -0.00509   0.00034   0.00000   0.00888   0.00882   0.00373
   D62       -3.13878   0.00002   0.00000   0.00061   0.00058  -3.13820
   D63        3.13478   0.00032   0.00000   0.00806   0.00799  -3.14042
   D64        0.00108   0.00000   0.00000  -0.00021  -0.00025   0.00083
         Item               Value     Threshold  Converged?
 Maximum Force            0.033154     0.000450     NO 
 RMS     Force            0.006274     0.000300     NO 
 Maximum Displacement     0.156041     0.001800     NO 
 RMS     Displacement     0.047258     0.001200     NO 
 Predicted change in Energy=-8.641714D-03
 GradGradGradGradGradGradGradGradGradGradGradGradGradGradGradGradGradGrad

                          Input orientation:                          
 ---------------------------------------------------------------------
 Center     Atomic      Atomic             Coordinates (Angstroms)
 Number     Number       Type             X           Y           Z
 ---------------------------------------------------------------------
      1          8           0        0.000375    2.197825    1.093939
      2          6           0        0.730039    1.885700   -0.077880
      3          6           0        1.545587    0.641819   -0.064200
      4          6           0        2.080361    0.176851   -1.257880
      5          6           0        2.860241   -0.964229   -1.278775
      6          6           0        3.118212   -1.652328   -0.103200
      7          6           0        2.590660   -1.189567    1.091147
      8          6           0        1.809571   -0.046962    1.110491
      9          6           0       -0.733110    1.884634   -0.075204
     10          6           0       -1.547036    0.639789   -0.059214
     11          6           0       -1.790395   -0.061281    1.112708
     12          6           0       -2.570003   -1.204915    1.094754
     13          6           0       -3.116653   -1.656581   -0.095256
     14          6           0       -2.879321   -0.956235   -1.267929
     15          6           0       -2.101030    0.185925   -1.248407
     16          1           0        1.211847    2.742559   -0.513085
     17          1           0        1.887689    0.706190   -2.174722
     18          1           0        3.265749   -1.311770   -2.210525
     19          1           0        3.725745   -2.538512   -0.118398
     20          1           0        2.784972   -1.713166    2.008535
     21          1           0        1.408277    0.307070    2.041177
     22          1           0       -1.217565    2.740785   -0.508776
     23          1           0       -1.374347    0.283913    2.040180
     24          1           0       -2.748224   -1.738005    2.009934
     25          1           0       -3.723106   -2.543524   -0.109263
     26          1           0       -3.299859   -1.294918   -2.196271
     27          1           0       -1.924686    0.724923   -2.162908
 ---------------------------------------------------------------------
                    Distance matrix (angstroms):
                    1          2          3          4          5
     1  O    0.000000
     2  C    1.415270   0.000000
     3  C    2.479944   1.487463   0.000000
     4  C    3.733863   2.477082   1.388182   0.000000
     5  C    4.879261   3.755264   2.404765   1.382285   0.000000
     6  C    5.096835   4.268683   2.781687   2.399232   1.386364
     7  C    4.264271   3.779656   2.404367   2.765037   2.395826
     8  C    2.883147   2.512528   1.387086   2.394285   2.766564
     9  C    1.415269   1.463152   2.595606   3.497265   4.740968
    10  C    2.480267   2.595711   3.092628   3.848262   4.846059
    11  C    2.882841   3.400121   3.606694   4.545234   5.306875
    12  C    4.264444   4.670893   4.657433   5.391665   5.931198
    13  C    5.097695   5.229254   5.198085   5.632239   6.132155
    14  C    4.880489   4.745555   4.856187   5.087478   5.739578
    15  C    3.735001   3.503472   3.861088   4.181411   5.092934
    16  H    2.084928   1.075058   2.173934   2.809251   4.128409
    17  H    4.058457   2.669859   2.139037   1.076068   2.130464
    18  H    5.822320   4.604544   3.373748   2.128067   1.073956
    19  H    6.146627   5.343177   3.856232   3.373262   2.138676
    20  H    4.887363   4.639797   3.373168   3.839024   3.372385
    21  H    2.540551   2.728091   2.136241   3.369336   3.840114
    22  H    2.084917   2.170254   3.498330   4.243964   5.563140
    23  H    2.539349   3.388264   3.616978   4.777412   5.523138
    24  H    4.887188   5.439533   5.329392   6.136817   6.547459
    25  H    6.147552   6.280884   6.156912   6.511527   6.870399
    26  H    5.823769   5.553736   5.636934   5.656275   6.236824
    27  H    4.059846   3.569637   4.056387   4.142446   5.150772
                    6          7          8          9         10
     6  C    0.000000
     7  C    1.385252   0.000000
     8  C    2.400580   1.384203   0.000000
     9  C    5.229108   4.675311   3.406195   0.000000
    10  C    5.198103   4.668019   3.620310   1.487405   0.000000
    11  C    5.301348   4.524062   3.599995   2.513081   1.387128
    12  C    5.830185   5.160687   4.530095   3.779986   2.404378
    13  C    6.234871   5.847997   5.320937   4.268710   2.781781
    14  C    6.149109   5.961575   5.335669   3.754911   2.404842
    15  C    5.650766   5.420096   4.572902   2.476534   1.388193
    16  H    4.808042   4.465008   3.282484   2.170399   3.498439
    17  H    3.371646   3.841089   3.371344   3.558833   4.034491
    18  H    2.139758   3.372198   3.840487   5.546844   5.621355
    19  H    1.074545   2.138006   3.374864   6.280722   6.156892
    20  H    2.138732   1.074018   2.129348   5.446378   5.345865
    21  H    3.370678   2.130847   1.073570   3.399017   3.640909
    22  H    6.185701   5.701754   4.422342   1.075023   2.173670
    23  H    5.340992   4.335099   3.333337   2.729165   2.136334
    24  H    6.236004   5.445057   4.943897   4.640259   3.373149
    25  H    6.899123   6.567939   6.191214   5.343203   3.856328
    26  H    6.760201   6.746586   6.212756   4.603985   3.373794
    27  H    5.943445   5.885787   5.025497   2.668949   2.139017
                   11         12         13         14         15
    11  C    0.000000
    12  C    1.384200   0.000000
    13  C    2.400650   1.385263   0.000000
    14  C    2.766611   2.395786   1.386352   0.000000
    15  C    2.394258   2.764919   2.399183   1.382263   0.000000
    16  H    4.417938   5.698252   6.185703   5.566734   4.248791
    17  H    4.992446   5.849172   5.911878   5.129359   4.127785
    18  H    6.178366   6.707629   6.732631   6.227101   5.654297
    19  H    6.170907   6.548790   6.899039   6.888535   6.530756
    20  H    4.946232   5.456103   6.265645   6.587289   6.171485
    21  H    3.351005   4.359876   5.375431   5.561440   4.811577
    22  H    3.287692   4.468663   4.807740   4.123797   2.802654
    23  H    1.073526   2.130735   3.370643   3.840117   3.369343
    24  H    2.129285   1.074012   2.138736   3.372348   3.838901
    25  H    3.374925   2.138032   1.074546   2.138683   3.373229
    26  H    3.840532   3.372186   2.139774   1.073954   2.128035
    27  H    3.371322   3.840973   3.371577   2.130401   1.076070
                   16         17         18         19         20
    16  H    0.000000
    17  H    2.713780   0.000000
    18  H    4.851536   2.443869   0.000000
    19  H    5.862181   4.258521   2.468499   0.000000
    20  H    5.356003   4.915083   4.265294   2.467812   0.000000
    21  H    3.534748   4.261799   4.914043   4.258140   2.444935
    22  H    2.429416   4.069098   6.278476   7.242905   6.495755
    23  H    4.387766   5.346456   6.491933   6.215825   4.614028
    24  H    6.490242   6.706499   7.359472   6.861697   5.533252
    25  H    7.242893   6.804982   7.401123   7.448858   6.894174
    26  H    6.284092   5.560175   6.565645   7.431230   7.408137
    27  H    4.078064   3.812440   5.575931   6.837938   6.747302
                   21         22         23         24         25
    21  H    0.000000
    22  H    4.395483   0.000000
    23  H    2.782720   3.543723   0.000000
    24  H    4.632474   5.361565   2.444711   0.000000
    25  H    6.251509   5.861848   4.258072   2.467843   0.000000
    26  H    6.533672   4.844634   4.914043   4.265301   2.468554
    27  H    5.381223   2.701827   4.261843   4.914961   4.258464
                   26         27
    26  H    0.000000
    27  H    2.443761   0.000000
 Stoichiometry    C14H12O
 Framework group  C1[X(C14H12O)]
 Deg. of freedom    75
 Full point group                 C1      NOp   1
 Largest Abelian subgroup         C1      NOp   1
 Largest concise Abelian subgroup C1      NOp   1
                         Standard orientation:                         
 ---------------------------------------------------------------------
 Center     Atomic      Atomic             Coordinates (Angstroms)
 Number     Number       Type             X           Y           Z
 ---------------------------------------------------------------------
      1          8           0       -0.001756    2.315404   -0.813113
      2          6           0       -0.730801    1.860817    0.311535
      3          6           0       -1.545942    0.627812    0.144826
      4          6           0       -2.080037    0.018928    1.272235
      5          6           0       -2.859528   -1.116313    1.152504
      6          6           0       -3.117787   -1.654225   -0.098879
      7          6           0       -2.590913   -1.047451   -1.227220
      8          6           0       -1.810213    0.089112   -1.105762
      9          6           0        0.732346    1.860651    0.308171
     10          6           0        1.546679    0.627600    0.138407
     11          6           0        1.789756    0.076559   -1.111150
     12          6           0        2.569752   -1.060254   -1.234730
     13          6           0        3.117075   -1.655070   -0.109748
     14          6           0        2.880025   -1.104837    1.140461
     15          6           0        2.101346    0.030707    1.262304
     16          1           0       -1.212703    2.657254    0.849316
     17          1           0       -1.887139    0.431187    2.247301
     18          1           0       -3.264512   -1.576304    2.034421
     19          1           0       -3.725018   -2.535747   -0.192885
     20          1           0       -2.785454   -1.453947   -2.202119
     21          1           0       -1.409445    0.555411   -1.985820
     22          1           0        1.216707    2.656958    0.843862
     23          1           0        1.373186    0.533377   -1.988785
     24          1           0        2.747749   -1.476299   -2.208755
     25          1           0        3.723829   -2.536733   -0.205508
     26          1           0        3.301083   -1.555300    2.019763
     27          1           0        1.925224    0.452699    2.236383
 ---------------------------------------------------------------------
 Rotational constants (GHZ):           0.9624533           0.4553056           0.4007984
 Standard basis: 6-31G(d) (6D, 7F)
 There are   249 symmetry adapted cartesian basis functions of A   symmetry.
 There are   249 symmetry adapted basis functions of A   symmetry.
   249 basis functions,   468 primitive gaussians,   249 cartesian basis functions
    52 alpha electrons       52 beta electrons
       nuclear repulsion energy       908.7642872999 Hartrees.
 NAtoms=   27 NActive=   27 NUniq=   27 SFac= 1.00D+00 NAtFMM=   60 NAOKFM=F Big=F
 Integral buffers will be    131072 words long.
 Raffenetti 1 integral format.
 Two-electron integral symmetry is turned on.
 ------------------------------------------------------------------------------
 Polarizable Continuum Model (PCM)
 =================================
 Model                : PCM.
 Atomic radii         : SMD-Coulomb.
 Polarization charges : Total charges.
 Charge compensation  : None.
 Solution method      : On-the-fly selection.
 Cavity type          : VdW (van der Waals Surface) (Alpha=1.000).
 Cavity algorithm     : GePol (No added spheres)
                        Default sphere list used, NSphG=   27.
                        Lebedev-Laikov grids with approx.  5.0 points / Ang**2.
                        Smoothing algorithm: York/Karplus (Gamma=1.0000).
                        Polarization charges: spherical gaussians, with
                                              point-specific exponents (IZeta= 3).
                        Self-potential: point-specific (ISelfS= 7).
                        Self-field    : sphere-specific E.n sum rule (ISelfD= 2).
 1st derivatives      : Analytical E(r).r(x)/FMM algorithm (CHGder, D1EAlg=3).
                        Cavity 1st derivative terms included.
 Solvent              : Water, Eps=  78.355300 Eps(inf)=   1.777849
 ------------------------------------------------------------------------------
 ------------------------------------------------------------------------------
 Atomic radii for non-electrostatic terms: SMD-CDS.
 ------------------------------------------------------------------------------
 Nuclear repulsion after PCM non-electrostatic terms =      908.7715713815 Hartrees.
 One-electron integrals computed using PRISM.
 NBasis=   249 RedAO= T EigKep=  4.04D-04  NBF=   249
 NBsUse=   249 1.00D-06 EigRej= -1.00D+00 NBFU=   249
 Initial guess from the checkpoint file:  "STO.chk"
 B after Tr=     0.000000   -0.000000    0.000000
         Rot=    0.999931    0.011739    0.000014    0.000064 Ang=   1.35 deg.
 ExpMin= 1.61D-01 ExpMax= 5.48D+03 ExpMxC= 8.25D+02 IAcc=3 IRadAn=         5 AccDes= 0.00D+00
 Harris functional with IExCor=  205 and IRadAn=       5 diagonalized for initial guess.
 HarFok:  IExCor=  205 AccDes= 0.00D+00 IRadAn=         5 IDoV= 1 UseB2=F ITyADJ=14
 ICtDFT=  3500011 ScaDFX=  1.000000  1.000000  1.000000  1.000000
 FoFCou: FMM=F IPFlag=           0 FMFlag=      100000 FMFlg1=           0
         NFxFlg=           0 DoJE=T BraDBF=F KetDBF=T FulRan=T
         wScrn=  0.000000 ICntrl=       500 IOpCl=  0 I1Cent=   200000004 NGrid=           0
         NMat0=    1 NMatS0=      1 NMatT0=    0 NMatD0=    1 NMtDS0=    0 NMtDT0=    0
 Petite list used in FoFCou.
 Requested convergence on RMS density matrix=1.00D-08 within 128 cycles.
 Requested convergence on MAX density matrix=1.00D-06.
 Requested convergence on             energy=1.00D-06.
 No special actions if energy rises.
 Inv3:  Mode=1 IEnd=    13381632.
 Iteration    1 A*A^-1 deviation from unit magnitude is 6.44D-15 for    360.
 Iteration    1 A*A^-1 deviation from orthogonality  is 7.54D-15 for   2046   1398.
 Iteration    1 A^-1*A deviation from unit magnitude is 6.99D-15 for    166.
 Iteration    1 A^-1*A deviation from orthogonality  is 4.66D-14 for   2056   2046.
 Error on total polarization charges =  0.04126
 SCF Done:  E(RHF) =  -611.982982584     A.U. after   12 cycles
            NFock= 12  Conv=0.57D-08     -V/T= 2.0008
 SMD-CDS (non-electrostatic) energy       (kcal/mol) =       4.57
 (included in total energy above)
 D1PCM: PCM CHGder 1st derivatives, ID1Alg=3 FixD1E=F DoIter=F DoCFld=F I1PDM=0.
[...]

 Orbital symmetries:
       Occupied  (A) (A) (A) (A) (A) (A) (A) (A) (A) (A) (A) (A)
                 (A) (A) (A) (A) (A) (A) (A) (A) (A) (A) (A) (A)
                 (A) (A) (A) (A) (A) (A) (A) (A) (A) (A) (A) (A)
                 (A) (A) (A) (A) (A) (A) (A) (A) (A) (A) (A) (A)
                 (A) (A) (A) (A)
       Virtual   (A) (A) (A) (A) (A) (A) (A) (A) (A) (A) (A) (A)
                 (A) (A) (A) (A) (A) (A) (A) (A) (A) (A) (A) (A)
                 (A) (A) (A) (A) (A) (A) (A) (A) (A) (A) (A) (A)
                 (A) (A) (A) (A) (A) (A) (A) (A) (A) (A) (A) (A)
                 (A) (A) (A) (A) (A) (A) (A) (A) (A) (A) (A) (A)
                 (A) (A) (A) (A) (A) (A) (A) (A) (A) (A) (A) (A)
                 (A) (A) (A) (A) (A) (A) (A) (A) (A) (A) (A) (A)
                 (A) (A) (A) (A) (A) (A) (A) (A) (A) (A) (A) (A)
                 (A) (A) (A) (A) (A) (A) (A) (A) (A) (A) (A) (A)
                 (A) (A) (A) (A) (A) (A) (A) (A) (A) (A) (A) (A)
                 (A) (A) (A) (A) (A) (A) (A) (A) (A) (A) (A) (A)
                 (A) (A) (A) (A) (A) (A) (A) (A) (A) (A) (A) (A)
                 (A) (A) (A) (A) (A) (A) (A) (A) (A) (A) (A) (A)
                 (A) (A) (A) (A) (A) (A) (A) (A) (A) (A) (A) (A)
                 (A) (A) (A) (A) (A) (A) (A) (A) (A) (A) (A) (A)
                 (A) (A) (A) (A) (A) (A) (A) (A) (A) (A) (A) (A)
                 (A) (A) (A) (A) (A)
 The electronic state is 1-A.
 Alpha  occ. eigenvalues --  -20.58701 -11.29185 -11.29107 -11.24211 -11.24209
 Alpha  occ. eigenvalues --  -11.23065 -11.23065 -11.22999 -11.22999 -11.22942
 Alpha  occ. eigenvalues --  -11.22942 -11.22879 -11.22878 -11.22763 -11.22763
 Alpha  occ. eigenvalues --   -1.43831  -1.15676  -1.15586  -1.03964  -1.03373
 Alpha  occ. eigenvalues --   -1.01484  -1.01363  -0.92989  -0.88440  -0.82807
 Alpha  occ. eigenvalues --   -0.82380  -0.81077  -0.77917  -0.72255  -0.70040
 Alpha  occ. eigenvalues --   -0.68658  -0.65140  -0.63112  -0.62432  -0.61698
 Alpha  occ. eigenvalues --   -0.60846  -0.58367  -0.58242  -0.56013  -0.54591
 Alpha  occ. eigenvalues --   -0.52605  -0.51089  -0.50133  -0.49091  -0.48556
 Alpha  occ. eigenvalues --   -0.48072  -0.45688  -0.45457  -0.34069  -0.33410
 Alpha  occ. eigenvalues --   -0.33009  -0.32283
 Alpha virt. eigenvalues --    0.13390   0.13578   0.14075   0.15296   0.24725
 Alpha virt. eigenvalues --    0.25940   0.27090   0.28599   0.29602   0.30545
 Alpha virt. eigenvalues --    0.31004   0.31528   0.33558   0.33736   0.34556
 Alpha virt. eigenvalues --    0.35988   0.37243   0.37783   0.38213   0.40535
 Alpha virt. eigenvalues --    0.42703   0.46407   0.46586   0.48872   0.49053
 Alpha virt. eigenvalues --    0.50528   0.51487   0.51611   0.52549   0.58099
 Alpha virt. eigenvalues --    0.60673   0.66414   0.68716   0.69411   0.71796
 Alpha virt. eigenvalues --    0.73772   0.74787   0.75163   0.76337   0.77269
 Alpha virt. eigenvalues --    0.78268   0.78556   0.79391   0.79488   0.82190
 Alpha virt. eigenvalues --    0.83020   0.83394   0.83572   0.83852   0.84667
 Alpha virt. eigenvalues --    0.84671   0.85358   0.85589   0.86791   0.88829
 Alpha virt. eigenvalues --    0.89985   0.90568   0.91441   0.92554   0.92900
 Alpha virt. eigenvalues --    0.96973   0.98547   1.02800   1.05166   1.08144
 Alpha virt. eigenvalues --    1.08405   1.08787   1.09683   1.11586   1.12018
 Alpha virt. eigenvalues --    1.12323   1.12666   1.13170   1.13478   1.14204
 Alpha virt. eigenvalues --    1.15034   1.17138   1.17667   1.19462   1.20577
 Alpha virt. eigenvalues --    1.21726   1.21887   1.22675   1.23499   1.25755
 Alpha virt. eigenvalues --    1.28599   1.31799   1.33614   1.34479   1.35582
 Alpha virt. eigenvalues --    1.39515   1.42515   1.42983   1.46193   1.46301
 Alpha virt. eigenvalues --    1.48018   1.49679   1.51232   1.51894   1.54576
 Alpha virt. eigenvalues --    1.61536   1.67906   1.68251   1.69253   1.70136
 Alpha virt. eigenvalues --    1.72960   1.75024   1.76084   1.77125   1.77254
 Alpha virt. eigenvalues --    1.78681   1.79311   1.79403   1.80334   1.82295
 Alpha virt. eigenvalues --    1.85229   1.90531   1.95782   1.99959   2.05152
 Alpha virt. eigenvalues --    2.09919   2.11175   2.11825   2.14988   2.15537
 Alpha virt. eigenvalues --    2.16978   2.19461   2.20505   2.24360   2.27773
 Alpha virt. eigenvalues --    2.29484   2.32166   2.33569   2.36200   2.37586
 Alpha virt. eigenvalues --    2.39670   2.39851   2.44701   2.45032   2.46129
 Alpha virt. eigenvalues --    2.46552   2.47597   2.49450   2.49485   2.50021
 Alpha virt. eigenvalues --    2.52566   2.53005   2.57903   2.60364   2.62585
 Alpha virt. eigenvalues --    2.64192   2.64865   2.66062   2.67433   2.68751
 Alpha virt. eigenvalues --    2.74407   2.78418   2.83454   2.86589   2.90767
 Alpha virt. eigenvalues --    2.93004   2.94435   2.95919   3.01804   3.02840
 Alpha virt. eigenvalues --    3.05787   3.08483   3.09514   3.10568   3.11384
 Alpha virt. eigenvalues --    3.12922   3.13343   3.16436   3.18839   3.19969
 Alpha virt. eigenvalues --    3.29968   3.36687   3.37525   3.47063   3.49578
 Alpha virt. eigenvalues --    3.81988   3.84282   4.42214   4.49960   4.53249
 Alpha virt. eigenvalues --    4.53461   4.53977   4.55566   4.61765   4.65748
 Alpha virt. eigenvalues --    4.74995   4.77932   4.83450   4.85273   4.99591
 Alpha virt. eigenvalues --    5.12453   5.19361
          Condensed to atoms (all electrons):
               1          2          3          4          5          6
     1  O    8.501367   0.122784  -0.029875   0.002002  -0.000044  -0.000005
     2  C    0.122784   4.835345   0.382303  -0.049836   0.002773   0.000093
     3  C   -0.029875   0.382303   4.838188   0.542520  -0.042301  -0.027251
     4  C    0.002002  -0.049836   0.542520   4.967224   0.544795  -0.053418
     5  C   -0.000044   0.002773  -0.042301   0.544795   4.932353   0.545497
     6  C   -0.000005   0.000093  -0.027251  -0.053418   0.545497   4.936228
     7  C    0.000347   0.002455  -0.045863  -0.034414  -0.048624   0.550862
     8  C   -0.001461  -0.040859   0.559842  -0.041971  -0.034541  -0.051874
     9  C    0.122782   0.335127  -0.048844  -0.002743   0.000021   0.000024
    10  C   -0.029880  -0.048836  -0.000608   0.000345  -0.000022   0.000007
    11  C   -0.001454  -0.001073   0.000972   0.000039  -0.000014   0.000001
    12  C    0.000347  -0.000091  -0.000110  -0.000001   0.000001   0.000001
    13  C   -0.000005   0.000024   0.000007  -0.000000   0.000000  -0.000000
    14  C   -0.000044   0.000021  -0.000022  -0.000006  -0.000001   0.000000
    15  C    0.002001  -0.002738   0.000341   0.000379  -0.000006  -0.000000
    16  H   -0.023322   0.395653  -0.037646  -0.000360  -0.000077   0.000011
    17  H   -0.000008  -0.000737  -0.035314   0.383674  -0.027316   0.002473
    18  H    0.000000  -0.000094   0.001842  -0.028383   0.383807  -0.028781
    19  H   -0.000000   0.000005   0.000199   0.002522  -0.029082   0.384036
    20  H    0.000001  -0.000098   0.002041   0.000249   0.002452  -0.028874
    21  H    0.005510  -0.004421  -0.030882   0.002922  -0.000000   0.002416
    22  H   -0.023319  -0.026400   0.001121   0.000085  -0.000000  -0.000000
    23  H    0.005512   0.000039  -0.000017   0.000002  -0.000001   0.000001
    24  H    0.000001   0.000001  -0.000001   0.000000   0.000000   0.000000
    25  H   -0.000000   0.000000   0.000000  -0.000000  -0.000000  -0.000000
    26  H    0.000000   0.000000  -0.000000  -0.000000   0.000000   0.000000
    27  H   -0.000008   0.000309  -0.000001   0.000026  -0.000000   0.000000
               7          8          9         10         11         12
     1  O    0.000347  -0.001461   0.122782  -0.029880  -0.001454   0.000347
     2  C    0.002455  -0.040859   0.335127  -0.048836  -0.001073  -0.000091
     3  C   -0.045863   0.559842  -0.048844  -0.000608   0.000972  -0.000110
     4  C   -0.034414  -0.041971  -0.002743   0.000345   0.000039  -0.000001
     5  C   -0.048624  -0.034541   0.000021  -0.000022  -0.000014   0.000001
     6  C    0.550862  -0.051874   0.000024   0.000007   0.000001   0.000001
     7  C    4.941740   0.532763  -0.000091  -0.000110  -0.000075  -0.000023
     8  C    0.532763   4.957558  -0.001062   0.000966   0.000374  -0.000076
     9  C   -0.000091  -0.001062   4.835319   0.382301  -0.040861   0.002455
    10  C   -0.000110   0.000966   0.382301   4.838147   0.559836  -0.045859
    11  C   -0.000075   0.000374  -0.040861   0.559836   4.957590   0.532758
    12  C   -0.000023  -0.000076   0.002455  -0.045859   0.532758   4.941746
    13  C    0.000001   0.000001   0.000093  -0.027251  -0.051872   0.550852
    14  C    0.000001  -0.000014   0.002773  -0.042298  -0.034542  -0.048623
    15  C   -0.000001   0.000039  -0.049825   0.542524  -0.041971  -0.034414
    16  H   -0.000016   0.001794  -0.026401   0.001120   0.000021   0.000002
    17  H    0.000059   0.002708   0.000310  -0.000001   0.000000   0.000000
    18  H    0.002503   0.000194   0.000000  -0.000000  -0.000000   0.000000
    19  H   -0.029184   0.002460   0.000000   0.000000   0.000000   0.000000
    20  H    0.384299  -0.029189   0.000001  -0.000001  -0.000007   0.000000
    21  H   -0.028135   0.381296   0.000039  -0.000017   0.000113   0.000019
    22  H    0.000002   0.000021   0.395665  -0.037660   0.001799  -0.000016
    23  H    0.000019   0.000117  -0.004422  -0.030877   0.381291  -0.028135
    24  H    0.000000  -0.000007  -0.000098   0.002040  -0.029189   0.384300
    25  H    0.000000   0.000000   0.000005   0.000199   0.002460  -0.029185
    26  H    0.000000  -0.000000  -0.000094   0.001842   0.000194   0.002503
    27  H    0.000000   0.000000  -0.000738  -0.035314   0.002708   0.000059
              13         14         15         16         17         18
     1  O   -0.000005  -0.000044   0.002001  -0.023322  -0.000008   0.000000
     2  C    0.000024   0.000021  -0.002738   0.395653  -0.000737  -0.000094
     3  C    0.000007  -0.000022   0.000341  -0.037646  -0.035314   0.001842
     4  C   -0.000000  -0.000006   0.000379  -0.000360   0.383674  -0.028383
     5  C    0.000000  -0.000001  -0.000006  -0.000077  -0.027316   0.383807
     6  C   -0.000000   0.000000  -0.000000   0.000011   0.002473  -0.028781
     7  C    0.000001   0.000001  -0.000001  -0.000016   0.000059   0.002503
     8  C    0.000001  -0.000014   0.000039   0.001794   0.002708   0.000194
     9  C    0.000093   0.002773  -0.049825  -0.026401   0.000310   0.000000
    10  C   -0.027251  -0.042298   0.542524   0.001120  -0.000001  -0.000000
    11  C   -0.051872  -0.034542  -0.041971   0.000021   0.000000  -0.000000
    12  C    0.550852  -0.048623  -0.034414   0.000002   0.000000   0.000000
    13  C    4.936223   0.545504  -0.053418  -0.000000   0.000000   0.000000
    14  C    0.545504   4.932357   0.544789  -0.000000  -0.000000   0.000000
    15  C   -0.053418   0.544789   4.967234   0.000085   0.000026  -0.000000
    16  H   -0.000000  -0.000000   0.000085   0.449299   0.001505  -0.000001
    17  H    0.000000  -0.000000   0.000026   0.001505   0.434922  -0.001396
    18  H    0.000000   0.000000  -0.000000  -0.000001  -0.001396   0.436315
    19  H   -0.000000  -0.000000  -0.000000  -0.000000  -0.000097  -0.001362
    20  H    0.000000   0.000000   0.000000   0.000002   0.000010  -0.000099
    21  H    0.000001  -0.000001   0.000002   0.000113  -0.000092   0.000010
    22  H    0.000011  -0.000076  -0.000361   0.000170  -0.000006  -0.000000
    23  H    0.002416  -0.000000   0.002923   0.000009   0.000000  -0.000000
    24  H   -0.028874   0.002452   0.000249  -0.000000   0.000000  -0.000000
    25  H    0.384036  -0.029082   0.002522   0.000000  -0.000000   0.000000
    26  H   -0.028781   0.383807  -0.028383  -0.000000  -0.000000  -0.000000
    27  H    0.002473  -0.027317   0.383673  -0.000006   0.000024  -0.000000
              19         20         21         22         23         24
     1  O   -0.000000   0.000001   0.005510  -0.023319   0.005512   0.000001
     2  C    0.000005  -0.000098  -0.004421  -0.026400   0.000039   0.000001
     3  C    0.000199   0.002041  -0.030882   0.001121  -0.000017  -0.000001
     4  C    0.002522   0.000249   0.002922   0.000085   0.000002   0.000000
     5  C   -0.029082   0.002452  -0.000000  -0.000000  -0.000001   0.000000
     6  C    0.384036  -0.028874   0.002416  -0.000000   0.000001   0.000000
     7  C   -0.029184   0.384299  -0.028135   0.000002   0.000019   0.000000
     8  C    0.002460  -0.029189   0.381296   0.000021   0.000117  -0.000007
     9  C    0.000000   0.000001   0.000039   0.395665  -0.004422  -0.000098
    10  C    0.000000  -0.000001  -0.000017  -0.037660  -0.030877   0.002040
    11  C    0.000000  -0.000007   0.000113   0.001799   0.381291  -0.029189
    12  C    0.000000   0.000000   0.000019  -0.000016  -0.028135   0.384300
    13  C   -0.000000   0.000000   0.000001   0.000011   0.002416  -0.028874
    14  C   -0.000000   0.000000  -0.000001  -0.000076  -0.000000   0.002452
    15  C   -0.000000   0.000000   0.000002  -0.000361   0.002923   0.000249
    16  H   -0.000000   0.000002   0.000113   0.000170   0.000009  -0.000000
    17  H   -0.000097   0.000010  -0.000092  -0.000006   0.000000   0.000000
    18  H   -0.001362  -0.000099   0.000010  -0.000000  -0.000000  -0.000000
    19  H    0.438002  -0.001415  -0.000095   0.000000  -0.000000   0.000000
    20  H   -0.001415   0.437193  -0.001231  -0.000000  -0.000002   0.000000
    21  H   -0.000095  -0.001231   0.429621   0.000009   0.000872  -0.000002
    22  H    0.000000  -0.000000   0.000009   0.449293   0.000113   0.000002
    23  H   -0.000000  -0.000002   0.000872   0.000113   0.429615  -0.001230
    24  H    0.000000   0.000000  -0.000002   0.000002  -0.001230   0.437195
    25  H   -0.000000   0.000000  -0.000000  -0.000000  -0.000095  -0.001415
    26  H    0.000000  -0.000000  -0.000000  -0.000001   0.000010  -0.000099
    27  H   -0.000000   0.000000   0.000000   0.001508  -0.000092   0.000010
              25         26         27
     1  O   -0.000000   0.000000  -0.000008
     2  C    0.000000   0.000000   0.000309
     3  C    0.000000  -0.000000  -0.000001
     4  C   -0.000000  -0.000000   0.000026
     5  C   -0.000000   0.000000  -0.000000
     6  C   -0.000000   0.000000   0.000000
     7  C    0.000000   0.000000   0.000000
     8  C    0.000000  -0.000000   0.000000
     9  C    0.000005  -0.000094  -0.000738
    10  C    0.000199   0.001842  -0.035314
    11  C    0.002460   0.000194   0.002708
    12  C   -0.029185   0.002503   0.000059
    13  C    0.384036  -0.028781   0.002473
    14  C   -0.029082   0.383807  -0.027317
    15  C    0.002522  -0.028383   0.383673
    16  H    0.000000  -0.000000  -0.000006
    17  H   -0.000000  -0.000000   0.000024
    18  H    0.000000  -0.000000  -0.000000
    19  H   -0.000000   0.000000  -0.000000
    20  H    0.000000  -0.000000   0.000000
    21  H   -0.000000  -0.000000   0.000000
    22  H   -0.000000  -0.000001   0.001508
    23  H   -0.000095   0.000010  -0.000092
    24  H   -0.001415  -0.000099   0.000010
    25  H    0.438003  -0.001362  -0.000097
    26  H   -0.001362   0.436317  -0.001396
    27  H   -0.000097  -0.001396   0.434920
 Mulliken charges:
               1
     1  O   -0.653228
     2  C    0.098250
     3  C   -0.030641
     4  C   -0.235651
     5  C   -0.229669
     6  C   -0.231446
     7  C   -0.228515
     8  C   -0.239080
     9  C    0.098265
    10  C   -0.030594
    11  C   -0.239097
    12  C   -0.228512
    13  C   -0.231441
    14  C   -0.229676
    15  C   -0.235670
    16  H    0.238045
    17  H    0.239257
    18  H    0.235443
    19  H    0.234010
    20  H    0.234668
    21  H    0.241933
    22  H    0.238041
    23  H    0.241932
    24  H    0.234666
    25  H    0.234010
    26  H    0.235441
    27  H    0.239259
 Sum of Mulliken charges =  -0.00000
 Mulliken charges with hydrogens summed into heavy atoms:
               1
     1  O   -0.653228
     2  C    0.336295
     3  C   -0.030641
     4  C    0.003606
     5  C    0.005774
     6  C    0.002564
     7  C    0.006153
     8  C    0.002852
     9  C    0.336306
    10  C   -0.030594
    11  C    0.002835
    12  C    0.006155
    13  C    0.002569
    14  C    0.005765
    15  C    0.003588
 Electronic spatial extent (au):  <R**2>=           3106.4646
 Charge=             -0.0000 electrons
 Dipole moment (field-independent basis, Debye):
    X=              0.0002    Y=             -1.2106    Z=              2.7123  Tot=              2.9702
 Quadrupole moment (field-independent basis, Debye-Ang):
   XX=            -83.4892   YY=            -84.4472   ZZ=            -77.3228
   XY=              0.0022   XZ=              0.0097   YZ=              8.4445
 Traceless Quadrupole moment (field-independent basis, Debye-Ang):
   XX=             -1.7361   YY=             -2.6941   ZZ=              4.4302
   XY=              0.0022   XZ=              0.0097   YZ=              8.4445
 Octapole moment (field-independent basis, Debye-Ang**2):
  XXX=              0.0221  YYY=             -1.6595  ZZZ=              1.4145  XYY=              0.0023
  XXY=            -33.3342  XXZ=             11.8566  XZZ=             -0.0106  YZZ=             -5.8639
  YYZ=             15.0549  XYZ=              0.0146
 Hexadecapole moment (field-independent basis, Debye-Ang**3):
 XXXX=          -2774.7835 YYYY=           -941.2203 ZZZZ=           -544.0923 XXXY=              0.0145
 XXXZ=              0.2053 YYYX=              0.0014 YYYZ=             47.5948 ZZZX=              0.0398
 ZZZY=             11.3902 XXYY=           -507.5601 XXZZ=           -488.6468 YYZZ=           -254.6270
 XXYZ=             -0.9586 YYXZ=             -0.0258 ZZXY=              0.0201
 N-N= 9.039779215414D+02 E-N=-3.236910770704D+03  KE= 6.113725678149D+02
 Unable to Open any file for archive entry.
 1\1\GINC-TERPSICHORE\FOpt\RHF\6-31G(d)\C14H12O1\MASTER9\02-Feb-2024\0\
 \# HF/6-31G* scrf=smd opt\\stilbeneoxide molecule\\0,1\O,0.0015615839,
 2.210817347,1.0585837849\C,0.7304565062,1.8660700749,-0.10217059\C,1.5
 733563806,0.6320431837,-0.0669526126\C,2.1655605922,0.2001598347,-1.25
 07805264\C,2.9632004423,-0.9310881505,-1.2648481034\C,3.1861263142,-1.
 6400581754,-0.0918874673\C,2.6075535438,-1.2081073303,1.0900922361\C,1
 .8029777626,-0.076481631,1.1040853388\C,-0.7336061685,1.8651218627,-0.
 0979300609\C,-1.5747328628,0.6300410005,-0.0578139451\C,-1.7955259299,
 -0.0796016891,1.114254424\C,-2.5987323383,-1.2122394402,1.104901079\C,
 -3.1847166926,-1.6441276677,-0.0734508976\C,-2.9706225424,-0.934066651
 4,-1.2473895061\C,-2.1743759883,0.1982158369,-1.2379091202\H,1.2019549
 976,2.71176026,-0.5740185479\H,2.0011881736,0.7506093776,-2.1609534584
 \H,3.4115214237,-1.2575150221,-2.1860650912\H,3.8080070812,-2.51716163
 31,-0.1010764746\H,2.7809282957,-1.7480302056,2.0037923107\H,1.3639837
 436,0.2542794466,2.02619076\H,-1.2089137152,2.7101938314,-0.5670511724
 \H,-1.3507591463,0.2510922653,2.0336096241\H,-2.7652561911,-1.75300475
 79,2.0193769605\H,-3.805525306,-2.5220203668,-0.0790468891\H,-3.424735
 4895,-1.2604266873,-2.1657888195\H,-2.0168844702,0.7495150869,-2.14878
 32352\\Version=EM64L-G16RevC.01\State=1-A\HF=-611.9833887\RMSD=6.247e-
 09\RMSF=4.923e-06\Dipole=-0.0028838,-0.3974685,-1.098896\Quadrupole=-1
 .2906591,-1.0646364,2.3552955,-0.0206514,0.0212457,-6.5958965\PG=C01 [
 X(C14H12O1)]\\@
 The archive entry for this job was punched.


 READER, WHETHER YOU BE DILETTANTE OR PROFESSOR ... SHOW YOURSELF TO BE
 MORE HUMAN THAN CRITICAL, AND THEN YOUR PLEASURE WILL INCREASE.
                                           -- DOMENICO SCARLATTI (1738)
 Job cpu time:       0 days  0 hours 22 minutes 19.2 seconds.
 Elapsed time:       0 days  0 hours 22 minutes 23.4 seconds.
 File lengths (MBytes):  RWF=    127 Int=      0 D2E=      0 Chk=      8 Scr=      1
 Normal termination of Gaussian 16 at Fri Feb  2 15:13:04 2024.
