 Entering Gaussian System, Link 0=g16
 Input=STO_gesp.com
 Output=STO_gesp.log
 Initial command:
 /usr/local/gaussian/gaussian16.c01-legacy/g16/l1.exe "/scratch/master9/Gau-3210550.inp" -scrdir="/scratch/master9/"
 Entering Link 1 = /usr/local/gaussian/gaussian16.c01-legacy/g16/l1.exe PID=   3210555.
  
 Copyright (c) 1988-2019, Gaussian, Inc.  All Rights Reserved.
  
 This is part of the Gaussian(R) 16 program.  It is based on
 the Gaussian(R) 09 system (copyright 2009, Gaussian, Inc.),
 the Gaussian(R) 03 system (copyright 2003, Gaussian, Inc.),
 the Gaussian(R) 98 system (copyright 1998, Gaussian, Inc.),
 the Gaussian(R) 94 system (copyright 1995, Gaussian, Inc.),
 the Gaussian 92(TM) system (copyright 1992, Gaussian, Inc.),
 the Gaussian 90(TM) system (copyright 1990, Gaussian, Inc.),
 the Gaussian 88(TM) system (copyright 1988, Gaussian, Inc.),
 the Gaussian 86(TM) system (copyright 1986, Carnegie Mellon
 University), and the Gaussian 82(TM) system (copyright 1983,
 Carnegie Mellon University). Gaussian is a federally registered
 trademark of Gaussian, Inc.
  
 This software contains proprietary and confidential information,
 including trade secrets, belonging to Gaussian, Inc.
  
 This software is provided under written license and may be
 used, copied, transmitted, or stored only in accord with that
 written license.
  
 The following legend is applicable only to US Government
 contracts under FAR:
  
                    RESTRICTED RIGHTS LEGEND
  
 Use, reproduction and disclosure by the US Government is
 subject to restrictions as set forth in subparagraphs (a)
 and (c) of the Commercial Computer Software - Restricted
 Rights clause in FAR 52.227-19.
  
 Gaussian, Inc.
 340 Quinnipiac St., Bldg. 40, Wallingford CT 06492
  
  
 ---------------------------------------------------------------
 Warning -- This program may not be used in any manner that
 competes with the business of Gaussian, Inc. or will provide
 assistance to any competitor of Gaussian, Inc.  The licensee
 of this program is prohibited from giving any competitor of
 Gaussian, Inc. access to this program.  By using this program,
 the user acknowledges that Gaussian, Inc. is engaged in the
 business of creating and licensing software in the field of
 computational chemistry and represents and warrants to the
 licensee that it is not a competitor of Gaussian, Inc. and that
 it will not use this program in any manner prohibited above.
 ---------------------------------------------------------------
  

 Cite this work as:
 Gaussian 16, Revision C.01,
 M. J. Frisch, G. W. Trucks, H. B. Schlegel, G. E. Scuseria, 
 M. A. Robb, J. R. Cheeseman, G. Scalmani, V. Barone, 
 G. A. Petersson, H. Nakatsuji, X. Li, M. Caricato, A. V. Marenich, 
 J. Bloino, B. G. Janesko, R. Gomperts, B. Mennucci, H. P. Hratchian, 
 J. V. Ortiz, A. F. Izmaylov, J. L. Sonnenberg, D. Williams-Young, 
 F. Ding, F. Lipparini, F. Egidi, J. Goings, B. Peng, A. Petrone, 
 T. Henderson, D. Ranasinghe, V. G. Zakrzewski, J. Gao, N. Rega, 
 G. Zheng, W. Liang, M. Hada, M. Ehara, K. Toyota, R. Fukuda, 
 J. Hasegawa, M. Ishida, T. Nakajima, Y. Honda, O. Kitao, H. Nakai, 
 T. Vreven, K. Throssell, J. A. Montgomery, Jr., J. E. Peralta, 
 F. Ogliaro, M. J. Bearpark, J. J. Heyd, E. N. Brothers, K. N. Kudin, 
 V. N. Staroverov, T. A. Keith, R. Kobayashi, J. Normand, 
 K. Raghavachari, A. P. Rendell, J. C. Burant, S. S. Iyengar, 
 J. Tomasi, M. Cossi, J. M. Millam, M. Klene, C. Adamo, R. Cammi, 
 J. W. Ochterski, R. L. Martin, K. Morokuma, O. Farkas, 
 J. B. Foresman, and D. J. Fox, Gaussian, Inc., Wallingford CT, 2019.
 
 ******************************************
 Gaussian 16:  EM64L-G16RevC.01  3-Jul-2019
                 5-Feb-2024 
 ******************************************
 %chk=STO_gesp
 ----------------------------------------------------------------------
 #HF/6-31G* scrf=smd SCF=tight Test Pop=MK iop(6/33=2) iop(6/42=6) # io
 p(6/50=1)
 ----------------------------------------------------------------------
 1/38=1,172=1/1;
 2/12=2,17=6,18=5,40=1/2;
 3/5=1,6=6,7=1,11=9,25=1,30=1,70=32201/1,2,3;
 4//1;
 5/5=2,32=2,38=5/2;
 6/7=2,8=2,9=2,10=2,15=8,20=1,28=1,33=2,42=6,50=1/1,2;
 99/5=1,9=1/99;
 -----------------
 calc RESP charges
 -----------------
 Symbolic Z-matrix:
 Charge =  0 Multiplicity = 1
 O                    -0.00006   2.28136  -0.89412 
 C                    -0.73198   1.85285   0.23644 
 C                    -1.57402   0.62431   0.10923 
 C                    -2.16926   0.10726   1.25685 
 C                    -2.96625  -1.02233   1.1864 
 C                    -3.18548  -1.64425  -0.03563 
 C                    -2.60388  -1.12728  -1.18144 
 C                    -1.79995   0.0027   -1.11086 
 C                     0.73209   1.8528    0.23627 
 C                     1.57408   0.62425   0.10885 
 C                     1.79857   0.00178  -1.11108 
 C                     2.60243  -1.12822  -1.18183 
 C                     3.1854   -1.64439  -0.03634 
 C                     2.9676   -1.02164   1.1855 
 C                     2.1707    0.10802   1.25611 
 H                    -1.2053    2.66181   0.76719 
 H                    -2.00775   0.59016   2.20509 
 H                    -3.41693  -1.41505   2.08018 
 H                    -3.80685  -2.51995  -0.09198 
 H                    -2.77438  -1.59942  -2.13246 
 H                    -1.3586    0.39979  -2.00524 
 H                     1.20558   2.66173   0.76692 
 H                     1.35616   0.39825  -2.00522 
 H                     2.77183  -1.60101  -2.13272 
 H                     3.80672  -2.52012  -0.09283 
 H                     3.41936  -1.41372   2.07902 
 H                     2.01034   0.59157   2.20421 
 
                          Input orientation:                          
 ---------------------------------------------------------------------
 Center     Atomic      Atomic             Coordinates (Angstroms)
 Number     Number       Type             X           Y           Z
 ---------------------------------------------------------------------
      1          8           0       -0.000063    2.281362   -0.894122
      2          6           0       -0.731976    1.852848    0.236439
      3          6           0       -1.574024    0.624306    0.109228
      4          6           0       -2.169258    0.107264    1.256852
      5          6           0       -2.966246   -1.022335    1.186395
      6          6           0       -3.185475   -1.644248   -0.035625
      7          6           0       -2.603877   -1.127278   -1.181440
      8          6           0       -1.799954    0.002695   -1.110862
      9          6           0        0.732093    1.852802    0.236270
     10          6           0        1.574079    0.624246    0.108846
     11          6           0        1.798565    0.001777   -1.111082
     12          6           0        2.602431   -1.128219   -1.181827
     13          6           0        3.185396   -1.644392   -0.036342
     14          6           0        2.967603   -1.021639    1.185501
     15          6           0        2.170698    0.108015    1.256113
     16          1           0       -1.205300    2.661807    0.767186
     17          1           0       -2.007754    0.590156    2.205093
     18          1           0       -3.416931   -1.415050    2.080177
     19          1           0       -3.806846   -2.519949   -0.091977
     20          1           0       -2.774380   -1.599419   -2.132458
     21          1           0       -1.358596    0.399794   -2.005240
     22          1           0        1.205579    2.661726    0.766922
     23          1           0        1.356158    0.398251   -2.005215
     24          1           0        2.771828   -1.601006   -2.132722
     25          1           0        3.806720   -2.520117   -0.092829
     26          1           0        3.419357   -1.413718    2.079022
     27          1           0        2.010336    0.591573    2.204207
 ---------------------------------------------------------------------
                    Distance matrix (angstroms):
                    1          2          3          4          5
     1  O    0.000000
     2  C    1.413326   0.000000
     3  C    2.495977   1.494839   0.000000
     4  C    3.749506   2.480743   1.392364   0.000000
     5  C    4.903183   3.763118   2.410394   1.384250   0.000000
     6  C    5.127795   4.280579   2.786412   2.402288   1.388586
     7  C    4.298980   3.794146   2.407170   2.767355   2.397700
     8  C    2.911856   2.525641   1.387827   2.398622   2.772781
     9  C    1.413330   1.464069   2.616012   3.536429   4.779839
    10  C    2.495977   2.616034   3.148103   3.949400   4.948423
    11  C    2.911811   3.412611   3.640200   4.621889   5.388008
    12  C    4.298952   4.692175   4.709665   5.499326   6.052260
    13  C    5.127814   5.258412   5.274491   5.780395   6.302757
    14  C    4.903232   4.780197   4.949129   5.259929   5.933849
    15  C    3.749553   3.536905   3.950297   4.339956   5.260299
    16  H    2.087410   1.077099   2.172620   2.773928   4.104823
    17  H    4.061543   2.664132   2.140546   1.076303   2.134615
    18  H    5.846786   4.613839   3.382295   2.133540   1.075262
    19  H    6.179613   5.355748   3.861647   3.376875   2.140956
    20  H    4.928567   4.658458   3.378012   3.842702   3.374111
    21  H    2.573032   2.743928   2.137239   3.374017   3.846235
    22  H    2.087419   2.165598   3.508537   4.260849   5.581432
    23  H    2.572930   3.391337   3.620488   4.811893   5.557663
    24  H    4.928518   5.460648   5.372596   6.230709   6.654088
    25  H    6.179633   6.311181   6.235433   6.666115   7.053569
    26  H    5.846848   5.594563   5.741732   5.849954   6.459558
    27  H    4.061617   3.603221   4.151824   4.312893   5.329823
                    6          7          8          9         10
     6  C    0.000000
     7  C    1.385065   0.000000
     8  C    2.405873   1.388565   0.000000
     9  C    5.258386   4.692491   3.413052   0.000000
    10  C    5.274494   4.710413   3.641169   1.494833   0.000000
    11  C    5.357860   4.545460   3.598519   2.525671   1.387835
    12  C    5.922830   5.206308   4.545877   3.794160   2.407172
    13  C    6.370871   5.924047   5.359217   4.280582   2.786421
    14  C    6.303900   6.054334   5.390004   3.763105   2.410401
    15  C    5.781661   5.501289   4.623823   2.480715   1.392361
    16  H    4.807048   4.484454   3.309313   2.165607   3.508563
    17  H    3.376449   3.843637   3.373996   3.602402   4.150294
    18  H    2.140729   3.373724   3.848031   5.594037   5.740649
    19  H    1.075235   2.138597   3.380751   6.311154   6.235435
    20  H    2.137222   1.075371   2.135400   5.461140   5.373753
    21  H    3.375645   2.135725   1.073497   3.392135   3.622198
    22  H    6.202165   5.715297   4.430547   1.077097   2.172598
    23  H    5.355139   4.322930   3.304145   2.743981   2.137245
    24  H    6.315785   5.479741   4.951489   4.658480   3.378014
    25  H    7.047071   6.649874   6.231835   5.355750   3.861655
    26  H    6.938925   6.855072   6.278757   4.613814   3.382298
    27  H    6.083765   5.975618   5.084759   2.664091   2.140543
                   11         12         13         14         15
    11  C    0.000000
    12  C    1.388559   0.000000
    13  C    2.405876   1.385070   0.000000
    14  C    2.772783   2.397697   1.388580   0.000000
    15  C    2.398621   2.767349   2.402287   1.384255   0.000000
    16  H    4.430221   5.715047   6.202195   5.581745   4.261252
    17  H    5.082447   5.973093   6.081615   5.328380   4.311900
    18  H    6.276379   6.852420   6.937072   6.458908   5.849821
    19  H    6.230434   6.648573   7.047066   7.054789   6.667426
    20  H    4.951653   5.480495   6.317805   6.656805   6.233100
    21  H    3.305390   4.324647   5.357529   5.560333   4.814299
    22  H    3.309662   4.484696   4.807032   4.104524   2.773482
    23  H    1.073494   2.135714   3.375643   3.846233   3.374014
    24  H    2.135393   1.075372   2.137225   3.374107   3.842696
    25  H    3.380751   2.138600   1.075234   2.140953   3.376876
    26  H    3.848033   3.373724   2.140727   1.075262   2.133542
    27  H    3.373996   3.843629   3.376443   2.134614   1.076302
                   16         17         18         19         20
    16  H    0.000000
    17  H    2.646365   0.000000
    18  H    4.820376   2.454024   0.000000
    19  H    5.861467   4.264507   2.468013   0.000000
    20  H    5.387763   4.918974   4.265344   2.465142   0.000000
    21  H    3.581417   4.264334   4.921487   4.263731   2.453056
    22  H    2.410879   4.084758   6.301773   7.260294   6.511823
    23  H    4.401245   5.392534   6.539179   6.231611   4.590013
    24  H    6.511420   6.816321   7.488914   6.948960   5.546208
    25  H    7.260324   6.983004   7.623927   7.613566   6.951162
    26  H    6.302243   5.786617   6.836288   7.625942   7.492224
    27  H    4.085488   4.018090   5.787672   6.985244   6.819136
                   21         22         23         24         25
    21  H    0.000000
    22  H    4.401842   0.000000
    23  H    2.714754   3.582002   0.000000
    24  H    4.591280   5.388131   2.453041   0.000000
    25  H    6.234075   5.861451   4.263724   2.465143   0.000000
    26  H    6.542084   4.819924   4.921485   4.265344   2.468017
    27  H    5.394991   2.645554   4.264335   4.918966   4.264503
                   26         27
    26  H    0.000000
    27  H    2.454018   0.000000
 Stoichiometry    C14H12O
 Framework group  C1[X(C14H12O)]
 Deg. of freedom    75
 Full point group                 C1      NOp   1
 Largest Abelian subgroup         C1      NOp   1
 Largest concise Abelian subgroup C1      NOp   1
                         Standard orientation:                         
 ---------------------------------------------------------------------
 Center     Atomic      Atomic             Coordinates (Angstroms)
 Number     Number       Type             X           Y           Z
 ---------------------------------------------------------------------
      1          8           0       -0.000063    2.281362   -0.894122
      2          6           0       -0.731976    1.852848    0.236439
      3          6           0       -1.574024    0.624306    0.109228
      4          6           0       -2.169258    0.107264    1.256852
      5          6           0       -2.966246   -1.022335    1.186395
      6          6           0       -3.185475   -1.644248   -0.035625
      7          6           0       -2.603877   -1.127278   -1.181440
      8          6           0       -1.799954    0.002695   -1.110862
      9          6           0        0.732093    1.852802    0.236270
     10          6           0        1.574079    0.624246    0.108846
     11          6           0        1.798565    0.001777   -1.111082
     12          6           0        2.602431   -1.128219   -1.181827
     13          6           0        3.185396   -1.644392   -0.036342
     14          6           0        2.967603   -1.021639    1.185501
     15          6           0        2.170698    0.108015    1.256113
     16          1           0       -1.205300    2.661807    0.767186
     17          1           0       -2.007754    0.590156    2.205093
     18          1           0       -3.416931   -1.415050    2.080177
     19          1           0       -3.806846   -2.519949   -0.091977
     20          1           0       -2.774380   -1.599419   -2.132458
     21          1           0       -1.358596    0.399794   -2.005240
     22          1           0        1.205579    2.661726    0.766922
     23          1           0        1.356158    0.398251   -2.005215
     24          1           0        2.771828   -1.601006   -2.132722
     25          1           0        3.806720   -2.520117   -0.092829
     26          1           0        3.419357   -1.413718    2.079022
     27          1           0        2.010336    0.591573    2.204207
 ---------------------------------------------------------------------
 Rotational constants (GHZ):           0.9734212           0.4396837           0.3897258
 Standard basis: 6-31G(d) (6D, 7F)
 There are   249 symmetry adapted cartesian basis functions of A   symmetry.
 There are   249 symmetry adapted basis functions of A   symmetry.
   249 basis functions,   468 primitive gaussians,   249 cartesian basis functions
    52 alpha electrons       52 beta electrons
       nuclear repulsion energy       903.9706310746 Hartrees.
 NAtoms=   27 NActive=   27 NUniq=   27 SFac= 1.00D+00 NAtFMM=   60 NAOKFM=F Big=F
 Integral buffers will be    131072 words long.
 Raffenetti 1 integral format.
 Two-electron integral symmetry is turned on.
 ------------------------------------------------------------------------------
 Polarizable Continuum Model (PCM)
 =================================
 Model                : PCM.
 Atomic radii         : SMD-Coulomb.
 Polarization charges : Total charges.
 Charge compensation  : None.
 Solution method      : On-the-fly selection.
 Cavity type          : VdW (van der Waals Surface) (Alpha=1.000).
 Cavity algorithm     : GePol (No added spheres)
                        Default sphere list used, NSphG=   27.
                        Lebedev-Laikov grids with approx.  5.0 points / Ang**2.
                        Smoothing algorithm: York/Karplus (Gamma=1.0000).
                        Polarization charges: spherical gaussians, with
                                              point-specific exponents (IZeta= 3).
                        Self-potential: point-specific (ISelfS= 7).
                        Self-field    : sphere-specific E.n sum rule (ISelfD= 2).
 Solvent              : Water, Eps=  78.355300 Eps(inf)=   1.777849
 ------------------------------------------------------------------------------
 ------------------------------------------------------------------------------
 Atomic radii for non-electrostatic terms: SMD-CDS.
 ------------------------------------------------------------------------------
 Nuclear repulsion after PCM non-electrostatic terms =      903.9779466025 Hartrees.
 One-electron integrals computed using PRISM.
 NBasis=   249 RedAO= T EigKep=  4.11D-04  NBF=   249
 NBsUse=   249 1.00D-06 EigRej= -1.00D+00 NBFU=   249
 ExpMin= 1.61D-01 ExpMax= 5.48D+03 ExpMxC= 8.25D+02 IAcc=3 IRadAn=         5 AccDes= 0.00D+00
 Harris functional with IExCor=  205 and IRadAn=       5 diagonalized for initial guess.
 HarFok:  IExCor=  205 AccDes= 0.00D+00 IRadAn=         5 IDoV= 1 UseB2=F ITyADJ=14
 ICtDFT=  3500011 ScaDFX=  1.000000  1.000000  1.000000  1.000000
 FoFCou: FMM=F IPFlag=           0 FMFlag=      100000 FMFlg1=           0
         NFxFlg=           0 DoJE=T BraDBF=F KetDBF=T FulRan=T
         wScrn=  0.000000 ICntrl=       500 IOpCl=  0 I1Cent=   200000004 NGrid=           0
         NMat0=    1 NMatS0=      1 NMatT0=    0 NMatD0=    1 NMtDS0=    0 NMtDT0=    0
 Petite list used in FoFCou.
 Requested convergence on RMS density matrix=1.00D-08 within 128 cycles.
 Requested convergence on MAX density matrix=1.00D-06.
 Requested convergence on             energy=1.00D-06.
 No special actions if energy rises.
 Inv3:  Mode=1 IEnd=    13330992.
 Iteration    1 A*A^-1 deviation from unit magnitude is 6.66D-15 for    106.
 Iteration    1 A*A^-1 deviation from orthogonality  is 5.26D-15 for   1574     39.
 Iteration    1 A^-1*A deviation from unit magnitude is 7.11D-15 for    997.
 Iteration    1 A^-1*A deviation from orthogonality  is 2.61D-14 for   1611   1575.
 Error on total polarization charges =  0.04143
 SCF Done:  E(RHF) =  -611.983388719     A.U. after   13 cycles
            NFock= 13  Conv=0.63D-08     -V/T= 2.0010
 SMD-CDS (non-electrostatic) energy       (kcal/mol) =       4.59
 (included in total energy above)
 SCF density gives NOpUse=  1 NOpAll=  1.

 **********************************************************************

            Population analysis using the SCF Density.

 **********************************************************************

 Orbital symmetries:
 BldTbl:  Degeneracy threshold= 1.00D-02
       Occupied  (A) (A) (A) (A) (A) (A) (A) (A) (A) (A) (A) (A)
                 (A) (A) (A) (A) (A) (A) (A) (A) (A) (A) (A) (A)
                 (A) (A) (A) (A) (A) (A) (A) (A) (A) (A) (A) (A)
                 (A) (A) (A) (A) (A) (A) (A) (A) (A) (A) (A) (A)
                 (A) (A) (A) (A)
       Virtual   (A) (A) (A) (A) (A) (A) (A) (A) (A) (A) (A) (A)
                 (A) (A) (A) (A) (A) (A) (A) (A) (A) (A) (A) (A)
                 (A) (A) (A) (A) (A) (A) (A) (A) (A) (A) (A) (A)
                 (A) (A) (A) (A) (A) (A) (A) (A) (A) (A) (A) (A)
                 (A) (A) (A) (A) (A) (A) (A) (A) (A) (A) (A) (A)
                 (A) (A) (A) (A) (A) (A) (A) (A) (A) (A) (A) (A)
                 (A) (A) (A) (A) (A) (A) (A) (A) (A) (A) (A) (A)
                 (A) (A) (A) (A) (A) (A) (A) (A) (A) (A) (A) (A)
                 (A) (A) (A) (A) (A) (A) (A) (A) (A) (A) (A) (A)
                 (A) (A) (A) (A) (A) (A) (A) (A) (A) (A) (A) (A)
                 (A) (A) (A) (A) (A) (A) (A) (A) (A) (A) (A) (A)
                 (A) (A) (A) (A) (A) (A) (A) (A) (A) (A) (A) (A)
                 (A) (A) (A) (A) (A) (A) (A) (A) (A) (A) (A) (A)
                 (A) (A) (A) (A) (A) (A) (A) (A) (A) (A) (A) (A)
                 (A) (A) (A) (A) (A) (A) (A) (A) (A) (A) (A) (A)
                 (A) (A) (A) (A) (A) (A) (A) (A) (A) (A) (A) (A)
                 (A) (A) (A) (A) (A)
 The electronic state is 1-A.
 Alpha  occ. eigenvalues --  -20.58701 -11.29185 -11.29107 -11.24211 -11.24209
 Alpha  occ. eigenvalues --  -11.23065 -11.23065 -11.22999 -11.22999 -11.22942
 Alpha  occ. eigenvalues --  -11.22942 -11.22879 -11.22878 -11.22763 -11.22763
 Alpha  occ. eigenvalues --   -1.43831  -1.15676  -1.15586  -1.03964  -1.03373
 Alpha  occ. eigenvalues --   -1.01484  -1.01363  -0.92989  -0.88440  -0.82807
 Alpha  occ. eigenvalues --   -0.82380  -0.81077  -0.77917  -0.72255  -0.70040
 Alpha  occ. eigenvalues --   -0.68658  -0.65140  -0.63112  -0.62432  -0.61698
 Alpha  occ. eigenvalues --   -0.60846  -0.58367  -0.58242  -0.56014  -0.54591
 Alpha  occ. eigenvalues --   -0.52605  -0.51089  -0.50133  -0.49091  -0.48556
 Alpha  occ. eigenvalues --   -0.48072  -0.45688  -0.45457  -0.34069  -0.33410
 Alpha  occ. eigenvalues --   -0.33009  -0.32283
 Alpha virt. eigenvalues --    0.13390   0.13578   0.14075   0.15296   0.24725
 Alpha virt. eigenvalues --    0.25940   0.27090   0.28599   0.29602   0.30545
 Alpha virt. eigenvalues --    0.31004   0.31528   0.33558   0.33736   0.34556
 Alpha virt. eigenvalues --    0.35988   0.37243   0.37783   0.38213   0.40535
 Alpha virt. eigenvalues --    0.42703   0.46407   0.46586   0.48872   0.49053
 Alpha virt. eigenvalues --    0.50528   0.51487   0.51611   0.52549   0.58099
 Alpha virt. eigenvalues --    0.60673   0.66414   0.68716   0.69411   0.71796
 Alpha virt. eigenvalues --    0.73772   0.74787   0.75163   0.76337   0.77269
 Alpha virt. eigenvalues --    0.78268   0.78556   0.79391   0.79488   0.82190
 Alpha virt. eigenvalues --    0.83020   0.83394   0.83572   0.83852   0.84667
 Alpha virt. eigenvalues --    0.84671   0.85358   0.85589   0.86791   0.88829
 Alpha virt. eigenvalues --    0.89985   0.90568   0.91441   0.92554   0.92900
 Alpha virt. eigenvalues --    0.96973   0.98547   1.02800   1.05166   1.08144
 Alpha virt. eigenvalues --    1.08405   1.08787   1.09683   1.11586   1.12018
 Alpha virt. eigenvalues --    1.12323   1.12666   1.13170   1.13478   1.14204
 Alpha virt. eigenvalues --    1.15034   1.17138   1.17667   1.19462   1.20577
 Alpha virt. eigenvalues --    1.21726   1.21887   1.22675   1.23499   1.25755
 Alpha virt. eigenvalues --    1.28599   1.31799   1.33614   1.34479   1.35582
 Alpha virt. eigenvalues --    1.39515   1.42515   1.42983   1.46193   1.46301
 Alpha virt. eigenvalues --    1.48018   1.49679   1.51232   1.51894   1.54576
 Alpha virt. eigenvalues --    1.61536   1.67906   1.68251   1.69253   1.70136
 Alpha virt. eigenvalues --    1.72960   1.75024   1.76084   1.77125   1.77253
 Alpha virt. eigenvalues --    1.78681   1.79311   1.79403   1.80334   1.82295
 Alpha virt. eigenvalues --    1.85229   1.90531   1.95782   1.99959   2.05152
 Alpha virt. eigenvalues --    2.09919   2.11175   2.11825   2.14988   2.15537
 Alpha virt. eigenvalues --    2.16978   2.19461   2.20505   2.24360   2.27773
 Alpha virt. eigenvalues --    2.29484   2.32166   2.33569   2.36200   2.37586
 Alpha virt. eigenvalues --    2.39670   2.39851   2.44701   2.45032   2.46129
 Alpha virt. eigenvalues --    2.46552   2.47597   2.49450   2.49485   2.50021
 Alpha virt. eigenvalues --    2.52566   2.53005   2.57903   2.60364   2.62585
 Alpha virt. eigenvalues --    2.64192   2.64865   2.66062   2.67433   2.68751
 Alpha virt. eigenvalues --    2.74407   2.78418   2.83454   2.86589   2.90767
 Alpha virt. eigenvalues --    2.93004   2.94435   2.95919   3.01804   3.02840
 Alpha virt. eigenvalues --    3.05787   3.08483   3.09514   3.10568   3.11384
 Alpha virt. eigenvalues --    3.12922   3.13343   3.16436   3.18839   3.19969
 Alpha virt. eigenvalues --    3.29968   3.36687   3.37525   3.47063   3.49578
 Alpha virt. eigenvalues --    3.81988   3.84282   4.42214   4.49960   4.53249
 Alpha virt. eigenvalues --    4.53461   4.53977   4.55566   4.61765   4.65748
 Alpha virt. eigenvalues --    4.74995   4.77932   4.83450   4.85273   4.99591
 Alpha virt. eigenvalues --    5.12453   5.19361
          Condensed to atoms (all electrons):
               1          2          3          4          5          6
     1  O    8.501367   0.122784  -0.029875   0.002002  -0.000044  -0.000005
     2  C    0.122784   4.835345   0.382303  -0.049836   0.002773   0.000093
     3  C   -0.029875   0.382303   4.838188   0.542520  -0.042301  -0.027251
     4  C    0.002002  -0.049836   0.542520   4.967224   0.544795  -0.053418
     5  C   -0.000044   0.002773  -0.042301   0.544795   4.932353   0.545497
     6  C   -0.000005   0.000093  -0.027251  -0.053418   0.545497   4.936228
     7  C    0.000347   0.002455  -0.045863  -0.034414  -0.048624   0.550861
     8  C   -0.001461  -0.040859   0.559842  -0.041971  -0.034541  -0.051874
     9  C    0.122782   0.335126  -0.048844  -0.002743   0.000021   0.000024
    10  C   -0.029880  -0.048836  -0.000608   0.000345  -0.000022   0.000007
    11  C   -0.001454  -0.001073   0.000972   0.000039  -0.000014   0.000001
    12  C    0.000347  -0.000091  -0.000110  -0.000001   0.000001   0.000001
    13  C   -0.000005   0.000024   0.000007  -0.000000   0.000000  -0.000000
    14  C   -0.000044   0.000021  -0.000022  -0.000006  -0.000001   0.000000
    15  C    0.002001  -0.002738   0.000341   0.000379  -0.000006  -0.000000
    16  H   -0.023322   0.395653  -0.037646  -0.000360  -0.000077   0.000011
    17  H   -0.000008  -0.000737  -0.035314   0.383674  -0.027316   0.002473
    18  H    0.000000  -0.000094   0.001842  -0.028383   0.383807  -0.028781
    19  H   -0.000000   0.000005   0.000199   0.002522  -0.029082   0.384036
    20  H    0.000001  -0.000098   0.002041   0.000249   0.002452  -0.028874
    21  H    0.005510  -0.004421  -0.030882   0.002922  -0.000000   0.002416
    22  H   -0.023319  -0.026399   0.001121   0.000085  -0.000000  -0.000000
    23  H    0.005512   0.000039  -0.000017   0.000002  -0.000001   0.000001
    24  H    0.000001   0.000001  -0.000001   0.000000   0.000000   0.000000
    25  H   -0.000000   0.000000   0.000000  -0.000000  -0.000000  -0.000000
    26  H    0.000000   0.000000  -0.000000  -0.000000   0.000000   0.000000
    27  H   -0.000008   0.000309  -0.000001   0.000026  -0.000000   0.000000
               7          8          9         10         11         12
     1  O    0.000347  -0.001461   0.122782  -0.029880  -0.001454   0.000347
     2  C    0.002455  -0.040859   0.335126  -0.048836  -0.001073  -0.000091
     3  C   -0.045863   0.559842  -0.048844  -0.000608   0.000972  -0.000110
     4  C   -0.034414  -0.041971  -0.002743   0.000345   0.000039  -0.000001
     5  C   -0.048624  -0.034541   0.000021  -0.000022  -0.000014   0.000001
     6  C    0.550861  -0.051874   0.000024   0.000007   0.000001   0.000001
     7  C    4.941740   0.532763  -0.000091  -0.000110  -0.000075  -0.000023
     8  C    0.532763   4.957557  -0.001062   0.000966   0.000374  -0.000076
     9  C   -0.000091  -0.001062   4.835320   0.382301  -0.040861   0.002455
    10  C   -0.000110   0.000966   0.382301   4.838147   0.559836  -0.045859
    11  C   -0.000075   0.000374  -0.040861   0.559836   4.957590   0.532757
    12  C   -0.000023  -0.000076   0.002455  -0.045859   0.532757   4.941747
    13  C    0.000001   0.000001   0.000093  -0.027251  -0.051872   0.550853
    14  C    0.000001  -0.000014   0.002773  -0.042298  -0.034542  -0.048623
    15  C   -0.000001   0.000039  -0.049825   0.542524  -0.041971  -0.034414
    16  H   -0.000016   0.001794  -0.026401   0.001120   0.000021   0.000002
    17  H    0.000059   0.002708   0.000310  -0.000001   0.000000   0.000000
    18  H    0.002503   0.000194   0.000000  -0.000000  -0.000000   0.000000
    19  H   -0.029184   0.002460   0.000000   0.000000   0.000000   0.000000
    20  H    0.384299  -0.029189   0.000001  -0.000001  -0.000007   0.000000
    21  H   -0.028135   0.381296   0.000039  -0.000017   0.000113   0.000019
    22  H    0.000002   0.000021   0.395665  -0.037660   0.001799  -0.000016
    23  H    0.000019   0.000117  -0.004422  -0.030877   0.381291  -0.028135
    24  H    0.000000  -0.000007  -0.000098   0.002040  -0.029189   0.384300
    25  H    0.000000   0.000000   0.000005   0.000199   0.002460  -0.029185
    26  H    0.000000  -0.000000  -0.000094   0.001842   0.000194   0.002503
    27  H    0.000000   0.000000  -0.000738  -0.035314   0.002708   0.000059
              13         14         15         16         17         18
     1  O   -0.000005  -0.000044   0.002001  -0.023322  -0.000008   0.000000
     2  C    0.000024   0.000021  -0.002738   0.395653  -0.000737  -0.000094
     3  C    0.000007  -0.000022   0.000341  -0.037646  -0.035314   0.001842
     4  C   -0.000000  -0.000006   0.000379  -0.000360   0.383674  -0.028383
     5  C    0.000000  -0.000001  -0.000006  -0.000077  -0.027316   0.383807
     6  C   -0.000000   0.000000  -0.000000   0.000011   0.002473  -0.028781
     7  C    0.000001   0.000001  -0.000001  -0.000016   0.000059   0.002503
     8  C    0.000001  -0.000014   0.000039   0.001794   0.002708   0.000194
     9  C    0.000093   0.002773  -0.049825  -0.026401   0.000310   0.000000
    10  C   -0.027251  -0.042298   0.542524   0.001120  -0.000001  -0.000000
    11  C   -0.051872  -0.034542  -0.041971   0.000021   0.000000  -0.000000
    12  C    0.550853  -0.048623  -0.034414   0.000002   0.000000   0.000000
    13  C    4.936223   0.545504  -0.053418  -0.000000   0.000000   0.000000
    14  C    0.545504   4.932357   0.544790  -0.000000  -0.000000   0.000000
    15  C   -0.053418   0.544790   4.967234   0.000085   0.000026  -0.000000
    16  H   -0.000000  -0.000000   0.000085   0.449299   0.001505  -0.000001
    17  H    0.000000  -0.000000   0.000026   0.001505   0.434922  -0.001396
    18  H    0.000000   0.000000  -0.000000  -0.000001  -0.001396   0.436315
    19  H   -0.000000  -0.000000  -0.000000  -0.000000  -0.000097  -0.001362
    20  H    0.000000   0.000000   0.000000   0.000002   0.000010  -0.000099
    21  H    0.000001  -0.000001   0.000002   0.000113  -0.000092   0.000010
    22  H    0.000011  -0.000076  -0.000361   0.000170  -0.000006  -0.000000
    23  H    0.002416  -0.000000   0.002923   0.000009   0.000000  -0.000000
    24  H   -0.028874   0.002452   0.000249  -0.000000   0.000000  -0.000000
    25  H    0.384036  -0.029082   0.002522   0.000000  -0.000000   0.000000
    26  H   -0.028781   0.383807  -0.028383  -0.000000  -0.000000  -0.000000
    27  H    0.002473  -0.027317   0.383673  -0.000006   0.000024  -0.000000
              19         20         21         22         23         24
     1  O   -0.000000   0.000001   0.005510  -0.023319   0.005512   0.000001
     2  C    0.000005  -0.000098  -0.004421  -0.026399   0.000039   0.000001
     3  C    0.000199   0.002041  -0.030882   0.001121  -0.000017  -0.000001
     4  C    0.002522   0.000249   0.002922   0.000085   0.000002   0.000000
     5  C   -0.029082   0.002452  -0.000000  -0.000000  -0.000001   0.000000
     6  C    0.384036  -0.028874   0.002416  -0.000000   0.000001   0.000000
     7  C   -0.029184   0.384299  -0.028135   0.000002   0.000019   0.000000
     8  C    0.002460  -0.029189   0.381296   0.000021   0.000117  -0.000007
     9  C    0.000000   0.000001   0.000039   0.395665  -0.004422  -0.000098
    10  C    0.000000  -0.000001  -0.000017  -0.037660  -0.030877   0.002040
    11  C    0.000000  -0.000007   0.000113   0.001799   0.381291  -0.029189
    12  C    0.000000   0.000000   0.000019  -0.000016  -0.028135   0.384300
    13  C   -0.000000   0.000000   0.000001   0.000011   0.002416  -0.028874
    14  C   -0.000000   0.000000  -0.000001  -0.000076  -0.000000   0.002452
    15  C   -0.000000   0.000000   0.000002  -0.000361   0.002923   0.000249
    16  H   -0.000000   0.000002   0.000113   0.000170   0.000009  -0.000000
    17  H   -0.000097   0.000010  -0.000092  -0.000006   0.000000   0.000000
    18  H   -0.001362  -0.000099   0.000010  -0.000000  -0.000000  -0.000000
    19  H    0.438002  -0.001415  -0.000095   0.000000  -0.000000   0.000000
    20  H   -0.001415   0.437194  -0.001231  -0.000000  -0.000002   0.000000
    21  H   -0.000095  -0.001231   0.429621   0.000009   0.000872  -0.000002
    22  H    0.000000  -0.000000   0.000009   0.449293   0.000113   0.000002
    23  H   -0.000000  -0.000002   0.000872   0.000113   0.429615  -0.001231
    24  H    0.000000   0.000000  -0.000002   0.000002  -0.001231   0.437195
    25  H   -0.000000   0.000000  -0.000000  -0.000000  -0.000095  -0.001415
    26  H    0.000000  -0.000000  -0.000000  -0.000001   0.000010  -0.000099
    27  H   -0.000000   0.000000   0.000000   0.001508  -0.000092   0.000010
              25         26         27
     1  O   -0.000000   0.000000  -0.000008
     2  C    0.000000   0.000000   0.000309
     3  C    0.000000  -0.000000  -0.000001
     4  C   -0.000000  -0.000000   0.000026
     5  C   -0.000000   0.000000  -0.000000
     6  C   -0.000000   0.000000   0.000000
     7  C    0.000000   0.000000   0.000000
     8  C    0.000000  -0.000000   0.000000
     9  C    0.000005  -0.000094  -0.000738
    10  C    0.000199   0.001842  -0.035314
    11  C    0.002460   0.000194   0.002708
    12  C   -0.029185   0.002503   0.000059
    13  C    0.384036  -0.028781   0.002473
    14  C   -0.029082   0.383807  -0.027317
    15  C    0.002522  -0.028383   0.383673
    16  H    0.000000  -0.000000  -0.000006
    17  H   -0.000000  -0.000000   0.000024
    18  H    0.000000  -0.000000  -0.000000
    19  H   -0.000000   0.000000  -0.000000
    20  H    0.000000  -0.000000   0.000000
    21  H   -0.000000  -0.000000   0.000000
    22  H   -0.000000  -0.000001   0.001508
    23  H   -0.000095   0.000010  -0.000092
    24  H   -0.001415  -0.000099   0.000010
    25  H    0.438003  -0.001362  -0.000097
    26  H   -0.001362   0.436317  -0.001396
    27  H   -0.000097  -0.001396   0.434920
 Mulliken charges:
               1
     1  O   -0.653228
     2  C    0.098250
     3  C   -0.030641
     4  C   -0.235651
     5  C   -0.229668
     6  C   -0.231446
     7  C   -0.228515
     8  C   -0.239080
     9  C    0.098264
    10  C   -0.030593
    11  C   -0.239097
    12  C   -0.228512
    13  C   -0.231441
    14  C   -0.229676
    15  C   -0.235670
    16  H    0.238045
    17  H    0.239257
    18  H    0.235443
    19  H    0.234010
    20  H    0.234667
    21  H    0.241932
    22  H    0.238041
    23  H    0.241932
    24  H    0.234666
    25  H    0.234010
    26  H    0.235441
    27  H    0.239258
 Sum of Mulliken charges =  -0.00000
 Mulliken charges with hydrogens summed into heavy atoms:
               1
     1  O   -0.653228
     2  C    0.336296
     3  C   -0.030641
     4  C    0.003606
     5  C    0.005774
     6  C    0.002564
     7  C    0.006152
     8  C    0.002853
     9  C    0.336306
    10  C   -0.030593
    11  C    0.002835
    12  C    0.006155
    13  C    0.002569
    14  C    0.005765
    15  C    0.003588
 DipInt: DoE/N= T F RetVal/Mat= T F Init=T NMatP=  1 IDeriv=0 Min/MaxMlt=  0  4
 Entering OneElI...
 OneElI was handed   104696171 working-precision words.
 Multipole integrals L=0 to 4 MinM= 0 MaxM= 0.
 Requested accuracy = 0.1000D-12
 ShPair: Thresh= 1.00D-13 NBox=     0 BxSize= 0.00D+00 RnKept= 1.44D+01
         NSMCal=                 3570 NSMKep=                3097
 PrmmSu-InSpLW:  IPartL=    0 NPrtUS=    1 NPrtUL=    1 DoSpLW=F IThBeg=    0 IThEnd=    0 NThAct=    1.
 PrSmSu:  IncTry=   512 NBBP=           3097 NTPThr=   100 NPartT=    1 Incr=          30 LDynOK=F GPUOK=F.
 PrsmSu:  NPrtUS=   1 ThrOK=F IAlg=2 LenDen=           0 ISkipM=0 DoSpLW=F IThBeg=    0 IThEnd=    0.
 Prism:   IPart=     0 DynPar=F LinDyn=F Incr=          30.
 PRISM was handed   104419770 working-precision words and  3097 shell-pairs
 IPart=  0 NShTot=        3097 NBatch=          63 AvBLen=        49.2
 PrsmSu-ThDecC:  IPartSL=    0    0 NPrtUSL=    1    1 IThBeg=    0 IThEnd=    0 CPU=   -1 GPU=   -1 NThAct=    1.
 PrSmSu:  NxtVal=             31.
 Electronic moments (au):
       -104.00000000          0.00006726         -0.47630360          1.06709774
      -1928.39249832       -723.07096274       -455.00093878          0.00163098
          0.00726428          6.27830856         -0.70254976       -564.30323083
        -44.02431426         -0.12664862       3192.08839772       -544.53773560
          0.38706233        213.93551489        177.37162074         -0.72017356
     -58890.54174694     -11204.35583844      -4754.16951796         -0.40983034
         -7.34508623          0.57702552        397.16439896          1.17277093
        -44.86616899     -12461.05146474      -9295.10717093      -2315.46323540
        -52.64023382          1.94524240         -0.49780005
 Electronic spatial extent (au):  <R**2>=           3106.4644
 DipInt: DoE/N= F T RetVal/Mat= T F Init=T NMatP=  1 IDeriv=0 Min/MaxMlt=  0  4
 Nuclear    moments (au):
        104.00000000          0.00000000          0.00000000         -0.00000000
       1866.32036637        660.28655579        397.51331416         -0.00000000
         -0.00003838         -0.00005653          0.73358596        561.97163301
         46.01169373          0.12988208      -3238.92188659        561.19578928
         -0.40190409       -222.17407706       -156.22001509          0.74065778
      51523.49547011       8705.41696494       3309.60470323          0.44819534
          7.89062941         -0.57339481       -270.80017458         -1.06723402
         75.10725285      11113.48038432       7997.75019914       1639.42886959
         50.09496129         -2.01358252          0.55112949
 Total      moments (au):
         -0.00000000          0.00006726         -0.47630360          1.06709774
        -62.07213194        -62.78440696        -57.48762462          0.00163098
          0.00722590          6.27825202          0.03103620         -2.33159782
          1.98737946          0.00323346        -46.83348887         16.65805368
         -0.01484176         -8.23856216         21.15160565          0.02048422
      -7367.04627683      -2498.93887350      -1444.56481473          0.03836500
          0.54554318          0.00363071        126.36422438          0.10553691
         30.24108386      -1347.57108042      -1297.35697178       -676.03436581
         -2.54527253         -0.06834012          0.05332945
 Traceless Quadrup. (au):
         -1.29074410         -2.00301912          3.29376322          0.00163098
          0.00722590          6.27825202
 Charge=             -0.0000 electrons
 Dipole moment (field-independent basis, Debye):
    X=              0.0002    Y=             -1.2106    Z=              2.7123  Tot=              2.9702
 Quadrupole moment (field-independent basis, Debye-Ang):
   XX=            -83.4891   YY=            -84.4472   ZZ=            -77.3228
   XY=              0.0022   XZ=              0.0097   YZ=              8.4445
 Traceless Quadrupole moment (field-independent basis, Debye-Ang):
   XX=             -1.7361   YY=             -2.6941   ZZ=              4.4302
   XY=              0.0022   XZ=              0.0097   YZ=              8.4445
 Octapole moment (field-independent basis, Debye-Ang**2):
  XXX=              0.0221  YYY=             -1.6595  ZZZ=              1.4145  XYY=              0.0023
  XXY=            -33.3343  XXZ=             11.8566  XZZ=             -0.0106  YZZ=             -5.8639
  YYZ=             15.0549  XYZ=              0.0146
 Hexadecapole moment (field-independent basis, Debye-Ang**3):
 XXXX=          -2774.7829 YYYY=           -941.2202 ZZZZ=           -544.0924 XXXY=              0.0145
 XXXZ=              0.2055 YYYX=              0.0014 YYYZ=             47.5948 ZZZX=              0.0398
 ZZZY=             11.3902 XXYY=           -507.5599 XXZZ=           -488.6468 YYZZ=           -254.6270
 XXYZ=             -0.9587 YYXZ=             -0.0257 ZZXY=              0.0201
 N-N= 9.039779466025D+02 E-N=-3.236910821072D+03  KE= 6.113725688498D+02
 Entering OneElI...
 OneElI was handed   104726345 working-precision words.
 Calculate electrostatic properties
    NBasis =   249  MinDer = 0  MaxDer = 0
    NGrid  =    27  NMatD  =   1
 Requested accuracy = 0.1000D-12
 ShPair: Thresh= 1.00D-13 NBox=     0 BxSize= 0.00D+00 RnKept= 1.44D+01
         NSMCal=                 3570 NSMKep=                2856
 PrmmSu-InSpLW:  IPartL=    0 NPrtUS=    1 NPrtUL=    1 DoSpLW=F IThBeg=    0 IThEnd=    0 NThAct=    1.
 PrSmSu:  IncTry=   512 NBBP=          77112 NTPThr=   100 NPartT=    1 Incr=         512 LDynOK=F GPUOK=F.
 PrsmSu:  NPrtUS=   1 ThrOK=F IAlg=2 LenDen=           0 ISkipM=0 DoSpLW=F IThBeg=    0 IThEnd=    0.
 Prism:   IPart=     0 DynPar=F LinDyn=F Incr=         512.
 PRISM was handed   104472572 working-precision words and  2856 shell-pairs
 IPart=  0 NShTot=       77112 NBatch=        2856 AvBLen=        27.0
 PrsmSu-ThDecC:  IPartSL=    0    0 NPrtUSL=    1    1 IThBeg=    0 IThEnd=    0 CPU=   -1 GPU=   -1 NThAct=    1.
 PrSmSu:  NxtVal=            513.
 --------------------------------------------------------
       Center         ----      EFG at Nuclei      ----
                      3XX-RR        3YY-RR        3ZZ-RR
 --------------------------------------------------------
     1   Atom       -0.856528      1.651130     -0.794602
     2   Atom        0.057696      0.168789     -0.226484
     3   Atom       -0.161332     -0.047108      0.208440
     4   Atom       -0.149911      0.014690      0.135221
     5   Atom       -0.170037      0.007193      0.162844
     6   Atom       -0.169616     -0.013694      0.183311
     7   Atom       -0.161949      0.000851      0.161098
     8   Atom       -0.154784      0.008611      0.146174
     9   Atom        0.057641      0.168762     -0.226403
    10   Atom       -0.161162     -0.047052      0.208214
    11   Atom       -0.154636      0.008651      0.145985
    12   Atom       -0.161763      0.000883      0.160880
    13   Atom       -0.169448     -0.013646      0.183094
    14   Atom       -0.169894      0.007265      0.162629
    15   Atom       -0.149764      0.014755      0.135009
    16   Atom        0.064889     -0.112092      0.047203
    17   Atom        0.154851      0.060771     -0.215622
    18   Atom        0.082514      0.094853     -0.177367
    19   Atom        0.007321     -0.157146      0.149825
    20   Atom        0.154150      0.066934     -0.221084
    21   Atom        0.086345      0.097233     -0.183578
    22   Atom        0.064822     -0.112073      0.047251
    23   Atom        0.085949      0.097445     -0.183394
    24   Atom        0.154298      0.066681     -0.220979
    25   Atom        0.007338     -0.157167      0.149829
    26   Atom        0.082110      0.095056     -0.177166
    27   Atom        0.154991      0.060506     -0.215498
 --------------------------------------------------------
                        XY            XZ            YZ
 --------------------------------------------------------
     1   Atom        0.000187      0.000030      1.043689
     2   Atom       -0.091725      0.170259      0.180115
     3   Atom        0.189329     -0.073149      0.037992
     4   Atom        0.240384     -0.066804      0.038251
     5   Atom        0.251263     -0.055283      0.059800
     6   Atom        0.237317     -0.067240      0.043219
     7   Atom        0.255036     -0.071986      0.030328
     8   Atom        0.248045     -0.058463      0.040367
     9   Atom        0.091773     -0.170316      0.180106
    10   Atom       -0.189232      0.073719      0.038385
    11   Atom       -0.247970      0.058982      0.040735
    12   Atom       -0.254955      0.072540      0.030742
    13   Atom       -0.237225      0.067820      0.043641
    14   Atom       -0.251149      0.055851      0.060209
    15   Atom       -0.240294      0.067323      0.038623
    16   Atom        0.146769      0.109061     -0.170703
    17   Atom       -0.044905     -0.058713     -0.187520
    18   Atom       -0.083951      0.168439      0.142233
    19   Atom       -0.235165     -0.011649     -0.022523
    20   Atom       -0.044052     -0.063756     -0.186635
    21   Atom       -0.080523      0.167433      0.144897
    22   Atom       -0.146813     -0.109081     -0.170665
    23   Atom        0.080582     -0.167807      0.144609
    24   Atom        0.043878      0.063289     -0.186882
    25   Atom        0.235151      0.011657     -0.022590
    26   Atom        0.084002     -0.168810      0.141939
    27   Atom        0.044720      0.058234     -0.187770
 --------------------------------------------------------


 ---------------------------------------------------------------------------------
              Nuclear Quadrupole Coupling Constant in Principal Axis System
 ---------------------------------------------------------------------------------

       Atom             a.u.   MegaHertz   Gauss  10(-4) cm-1        Axes


 ---------------------------------------------------------------------------------

 No NMR shielding tensors so no spin-rotation constants.
 Leave Link  601 at Mon Feb  5 11:10:07 2024, MaxMem=   104857600 cpu:               0.2 elap:               0.2
 FitSet:  NAtFit=    27 NAtPot=    27 NAtFrz=     0 MDM=    31 TotChg=   0.00000
 Merz-Kollman atomic radii used.
 Atom Element Radius
    1     8    1.40
    2     6    1.50
    3     6    1.50
    4     6    1.50
    5     6    1.50
    6     6    1.50
    7     6    1.50
    8     6    1.50
    9     6    1.50
   10     6    1.50
   11     6    1.50
   12     6    1.50
   13     6    1.50
   14     6    1.50
   15     6    1.50
   16     1    1.20
   17     1    1.20
   18     1    1.20
   19     1    1.20
   20     1    1.20
   21     1    1.20
   22     1    1.20
   23     1    1.20
   24     1    1.20
   25     1    1.20
   26     1    1.20
   27     1    1.20
 Generate VDW surfaces: Layer= 4 Dens= 6 Start= 1.400 Inc= 0.200

 **********************************************************************

            Electrostatic Properties Using The SCF Density.

 **********************************************************************

       Atomic Center    1 is at  -0.000063  2.281362 -0.894122
       Atomic Center    2 is at  -0.731976  1.852848  0.236439
       Atomic Center    3 is at  -1.574024  0.624306  0.109228
       Atomic Center    4 is at  -2.169258  0.107264  1.256852
       Atomic Center    5 is at  -2.966246 -1.022335  1.186395
       Atomic Center    6 is at  -3.185475 -1.644248 -0.035625
       Atomic Center    7 is at  -2.603877 -1.127278 -1.181440
       Atomic Center    8 is at  -1.799954  0.002695 -1.110862
       Atomic Center    9 is at   0.732093  1.852802  0.236270
       Atomic Center   10 is at   1.574079  0.624246  0.108846
       Atomic Center   11 is at   1.798565  0.001777 -1.111082
       Atomic Center   12 is at   2.602431 -1.128219 -1.181827
       Atomic Center   13 is at   3.185396 -1.644392 -0.036342
       Atomic Center   14 is at   2.967603 -1.021639  1.185501
       Atomic Center   15 is at   2.170698  0.108015  1.256113
       Atomic Center   16 is at  -1.205300  2.661807  0.767186
       Atomic Center   17 is at  -2.007754  0.590156  2.205093
       Atomic Center   18 is at  -3.416931 -1.415050  2.080177
       Atomic Center   19 is at  -3.806846 -2.519949 -0.091977
       Atomic Center   20 is at  -2.774380 -1.599419 -2.132458
       Atomic Center   21 is at  -1.358596  0.399794 -2.005240
       Atomic Center   22 is at   1.205579  2.661726  0.766922
       Atomic Center   23 is at   1.356158  0.398251 -2.005215
       Atomic Center   24 is at   2.771828 -1.601006 -2.132722
       Atomic Center   25 is at   3.806720 -2.520117 -0.092829
       Atomic Center   26 is at   3.419357 -1.413718  2.079022
       Atomic Center   27 is at   2.010336  0.591573  2.204207
      ESP Fit Center   28 is at   0.106518  3.975422  0.085878
      ESP Fit Center   29 is at  -0.318126  3.948706  0.085878
      ESP Fit Center   30 is at   0.808727  3.960832 -0.288449
      ESP Fit Center   31 is at   0.414732  4.098697 -0.288449
      ESP Fit Center   32 is at  -0.000063  4.145433 -0.288449
      ESP Fit Center   33 is at  -0.414858  4.098697 -0.288449
      ESP Fit Center   34 is at  -0.808853  3.960832 -0.288449
      ESP Fit Center   35 is at   1.261863  3.767016 -0.689246
      ESP Fit Center   36 is at   0.912988  4.003559 -0.689246
      ESP Fit Center   37 is at   0.521420  4.159574 -0.689246
      ESP Fit Center   38 is at   0.105468  4.227766 -0.689246
      ESP Fit Center   39 is at  -0.315419  4.204946 -0.689246
      ESP Fit Center   40 is at  -0.721560  4.092182 -0.689246
      ESP Fit Center   41 is at  -1.093964  3.894746 -0.689246
      ESP Fit Center   42 is at  -1.415219  3.621869 -0.689246
      ESP Fit Center   43 is at   1.769040  3.099836 -1.098998
      ESP Fit Center   44 is at   1.551732  3.461006 -1.098998
      ESP Fit Center   45 is at   1.261863  3.767016 -1.098998
      ESP Fit Center   46 is at   0.912988  4.003559 -1.098998
      ESP Fit Center   47 is at   0.521420  4.159574 -1.098998
      ESP Fit Center   48 is at   0.105468  4.227766 -1.098998
      ESP Fit Center   49 is at  -0.315419  4.204946 -1.098998
      ESP Fit Center   50 is at  -0.721560  4.092182 -1.098998
      ESP Fit Center   51 is at  -1.093964  3.894746 -1.098998
      ESP Fit Center   52 is at  -1.415219  3.621869 -1.098998
      ESP Fit Center   53 is at  -1.670303  3.286312 -1.098998
      ESP Fit Center   54 is at   1.864008  2.281362 -1.499795
      ESP Fit Center   55 is at   1.817272  2.696157 -1.499795
      ESP Fit Center   56 is at   1.679407  3.090152 -1.499795
      ESP Fit Center   57 is at   1.457326  3.443591 -1.499795
      ESP Fit Center   58 is at   1.162166  3.738751 -1.499795
      ESP Fit Center   59 is at   0.808727  3.960832 -1.499795
      ESP Fit Center   60 is at   0.414732  4.098697 -1.499795
      ESP Fit Center   61 is at  -0.000063  4.145433 -1.499795
      ESP Fit Center   62 is at  -0.414858  4.098697 -1.499795
      ESP Fit Center   63 is at  -0.808853  3.960832 -1.499795
      ESP Fit Center   64 is at  -1.162292  3.738751 -1.499795
      ESP Fit Center   65 is at  -1.457452  3.443591 -1.499795
      ESP Fit Center   66 is at  -1.679533  3.090152 -1.499795
      ESP Fit Center   67 is at  -1.817398  2.696157 -1.499795
      ESP Fit Center   68 is at  -1.864134  2.281362 -1.499795
      ESP Fit Center   69 is at   1.697347  2.281362 -1.874122
      ESP Fit Center   70 is at   1.644019  2.703491 -1.874122
      ESP Fit Center   71 is at   1.487388  3.099095 -1.874122
      ESP Fit Center   72 is at   1.237295  3.443319 -1.874122
      ESP Fit Center   73 is at   0.909455  3.714533 -1.874122
      ESP Fit Center   74 is at   0.524465  3.895695 -1.874122
      ESP Fit Center   75 is at   0.106518  3.975422 -1.874122
      ESP Fit Center   76 is at  -0.318126  3.948706 -1.874122
      ESP Fit Center   77 is at  -0.722785  3.817224 -1.874122
      ESP Fit Center   78 is at  -1.082033  3.589239 -1.874122
      ESP Fit Center   79 is at  -1.373296  3.279074 -1.874122
      ESP Fit Center   80 is at  -1.578275  2.906220 -1.874122
      ESP Fit Center   81 is at  -1.684088  2.494104 -1.874122
      ESP Fit Center   82 is at  -1.684088  2.068620 -1.874122
      ESP Fit Center   83 is at   1.456501  2.281362 -2.205618
      ESP Fit Center   84 is at   1.397500  2.691723 -2.205618
      ESP Fit Center   85 is at   1.225276  3.068840 -2.205618
      ESP Fit Center   86 is at   0.953783  3.382160 -2.205618
      ESP Fit Center   87 is at   0.605015  3.606299 -2.205618
      ESP Fit Center   88 is at   0.207228  3.723100 -2.205618
      ESP Fit Center   89 is at  -0.207354  3.723100 -2.205618
      ESP Fit Center   90 is at  -0.605142  3.606299 -2.205618
      ESP Fit Center   91 is at  -0.953910  3.382160 -2.205618
      ESP Fit Center   92 is at  -1.225403  3.068840 -2.205618
      ESP Fit Center   93 is at  -1.397626  2.691723 -2.205618
      ESP Fit Center   94 is at  -1.456627  2.281362 -2.205618
      ESP Fit Center   95 is at   1.151996  2.281362 -2.479795
      ESP Fit Center   96 is at   1.074200  2.697534 -2.479795
      ESP Fit Center   97 is at   0.851319  3.057499 -2.479795
      ESP Fit Center   98 is at   0.513454  3.312643 -2.479795
      ESP Fit Center   99 is at   0.106236  3.428507 -2.479795
      ESP Fit Center  100 is at  -0.315339  3.389442 -2.479795
      ESP Fit Center  101 is at  -0.694334  3.200725 -2.479795
      ESP Fit Center  102 is at  -0.979563  2.887843 -2.479795
      ESP Fit Center  103 is at  -1.132506  2.493052 -2.479795
      ESP Fit Center  104 is at  -1.132506  2.069672 -2.479795
      ESP Fit Center  105 is at   0.797141  2.281362 -2.684671
      ESP Fit Center  106 is at   0.690336  2.679964 -2.684671
      ESP Fit Center  107 is at   0.398539  2.971761 -2.684671
      ESP Fit Center  108 is at  -0.000063  3.078566 -2.684671
      ESP Fit Center  109 is at  -0.398665  2.971761 -2.684671
      ESP Fit Center  110 is at  -0.690462  2.679964 -2.684671
      ESP Fit Center  111 is at  -0.797267  2.281362 -2.684671
      ESP Fit Center  112 is at  -0.690462  1.882760 -2.684671
      ESP Fit Center  113 is at  -0.000063  1.484158 -2.684671
      ESP Fit Center  114 is at   0.690336  1.882760 -2.684671
      ESP Fit Center  115 is at   0.407444  2.281362 -2.811291
      ESP Fit Center  116 is at   0.203690  2.634273 -2.811291
      ESP Fit Center  117 is at  -0.203817  2.634273 -2.811291
      ESP Fit Center  118 is at  -0.407570  2.281362 -2.811291
      ESP Fit Center  119 is at  -0.203817  1.928451 -2.811291
      ESP Fit Center  120 is at   0.203690  1.928451 -2.811291
      ESP Fit Center  121 is at  -0.000063  2.281362 -2.854122
      ESP Fit Center  122 is at  -0.731976  1.852848  2.336439
      ESP Fit Center  123 is at  -0.322286  1.852848  2.296088
      ESP Fit Center  124 is at  -0.527131  2.207650  2.296088
      ESP Fit Center  125 is at  -0.527131  1.498046  2.296088
      ESP Fit Center  126 is at  -0.036008  2.254666  2.176586
      ESP Fit Center  127 is at  -0.330158  1.156879  2.176586
      ESP Fit Center  128 is at  -0.036008  1.451030  2.176586
      ESP Fit Center  129 is at  -0.211934  0.808463  1.982525
      ESP Fit Center  130 is at  -0.115116  0.502113  1.721363
      ESP Fit Center  131 is at  -2.697168  2.469431 -0.173251
      ESP Fit Center  132 is at  -1.450099  3.655199 -0.567196
      ESP Fit Center  133 is at  -2.140514  3.187086 -0.567196
      ESP Fit Center  134 is at  -2.394405  2.853098 -0.567196
      ESP Fit Center  135 is at  -2.570563  2.472340 -0.567196
      ESP Fit Center  136 is at  -1.723866  3.289849 -0.930258
      ESP Fit Center  137 is at  -2.038940  3.010717 -0.930258
      ESP Fit Center  138 is at  -2.278059  2.664295 -0.930258
      ESP Fit Center  139 is at  -2.427324  2.270714 -0.930258
      ESP Fit Center  140 is at  -1.981174  2.655659 -1.248485
      ESP Fit Center  141 is at  -2.156750  2.271200 -1.248485
      ESP Fit Center  142 is at  -1.878808  2.067228 -1.509647
      ESP Fit Center  143 is at  -0.027941 -0.187141  1.275926
      ESP Fit Center  144 is at  -0.317999 -0.854400  0.912863
      ESP Fit Center  145 is at  -0.029486 -0.549821  0.912863
      ESP Fit Center  146 is at  -2.834748  2.253026  0.518918
      ESP Fit Center  147 is at  -3.136799  1.965905  0.518918
      ESP Fit Center  148 is at  -0.484544 -1.123603  0.518918
      ESP Fit Center  149 is at  -0.154994 -0.868513  0.518918
      ESP Fit Center  150 is at  -3.058948  2.109230  0.109228
      ESP Fit Center  151 is at  -3.320110  1.791003  0.109228
      ESP Fit Center  152 is at  -3.514171  1.427941  0.109228
      ESP Fit Center  153 is at  -0.407327 -1.121780  0.109228
      ESP Fit Center  154 is at  -0.089100 -0.860618  0.109228
      ESP Fit Center  155 is at  -2.834748  2.253026 -0.300462
      ESP Fit Center  156 is at  -3.136799  1.965905 -0.300462
      ESP Fit Center  157 is at  -3.374871  1.623858 -0.300462
      ESP Fit Center  158 is at  -3.539216  1.240889 -0.300462
      ESP Fit Center  159 is at  -3.623106  0.832677 -0.300462
      ESP Fit Center  160 is at  -2.662809  2.230144 -0.694407
      ESP Fit Center  161 is at  -2.982562  1.958544 -0.694407
      ESP Fit Center  162 is at  -3.236453  1.624556 -0.694407
      ESP Fit Center  163 is at  -2.565914  2.061307 -1.057469
      ESP Fit Center  164 is at  -1.649216 -0.937121  3.002938
      ESP Fit Center  165 is at  -1.552398 -1.243471  2.741776
      ESP Fit Center  166 is at  -1.196839 -1.014967  2.741776
      ESP Fit Center  167 is at  -0.920060 -0.695547  2.741776
      ESP Fit Center  168 is at  -3.715341  0.918711  2.423550
      ESP Fit Center  169 is at  -3.864606  0.525130  2.423550
      ESP Fit Center  170 is at  -1.177368 -1.329737  2.423550
      ESP Fit Center  171 is at  -0.862294 -1.050605  2.423550
      ESP Fit Center  172 is at  -0.623175 -0.704183  2.423550
      ESP Fit Center  173 is at  -0.473910 -0.310602  2.423550
      ESP Fit Center  174 is at  -0.229111  0.107264  2.060487
      ESP Fit Center  175 is at  -0.274471  0.524338  2.060487
      ESP Fit Center  176 is at  -3.258043  1.713102  2.060487
      ESP Fit Center  177 is at  -3.577796  1.441502  2.060487
      ESP Fit Center  178 is at  -3.831687  1.107514  2.060487
      ESP Fit Center  179 is at  -4.007844  0.726756  2.060487
      ESP Fit Center  180 is at  -0.913233 -1.371443  2.060487
      ESP Fit Center  181 is at  -0.624720 -1.066863  2.060487
      ESP Fit Center  182 is at  -0.408428 -0.707383  2.060487
      ESP Fit Center  183 is at  -0.274471 -0.309810  2.060487
      ESP Fit Center  184 is at  -0.109609  0.107264  1.666542
      ESP Fit Center  185 is at  -2.685514  2.101163  1.666542
      ESP Fit Center  186 is at  -3.076315  1.956426  1.666542
      ESP Fit Center  187 is at  -3.429982  1.735984  1.666542
      ESP Fit Center  188 is at  -3.732033  1.448863  1.666542
      ESP Fit Center  189 is at  -3.970105  1.106816  1.666542
      ESP Fit Center  190 is at  -4.134450  0.723847  1.666542
      ESP Fit Center  191 is at  -0.750228 -1.385555  1.666542
      ESP Fit Center  192 is at  -0.478773 -1.069348  1.666542
      ESP Fit Center  193 is at  -0.276527 -0.704971  1.666542
      ESP Fit Center  194 is at  -0.151770 -0.307340  1.666542
      ESP Fit Center  195 is at  -2.972893  2.047411  1.256852
      ESP Fit Center  196 is at  -3.335955  1.853350  1.256852
      ESP Fit Center  197 is at  -3.654182  1.592188  1.256852
      ESP Fit Center  198 is at  -3.915344  1.273961  1.256852
      ESP Fit Center  199 is at  -4.109405  0.910899  1.256852
      ESP Fit Center  200 is at  -0.684334 -1.377660  1.256852
      ESP Fit Center  201 is at  -0.423172 -1.059434  1.256852
      ESP Fit Center  202 is at  -0.229111 -0.696371  1.256852
      ESP Fit Center  203 is at  -3.076315  1.956426  0.847162
      ESP Fit Center  204 is at  -3.429982  1.735984  0.847162
      ESP Fit Center  205 is at  -3.732033  1.448863  0.847162
      ESP Fit Center  206 is at  -3.970105  1.106816  0.847162
      ESP Fit Center  207 is at  -4.134450  0.723847  0.847162
      ESP Fit Center  208 is at  -0.750228 -1.385555  0.847162
      ESP Fit Center  209 is at  -0.478773 -1.069348  0.847162
      ESP Fit Center  210 is at  -3.577796  1.441502  0.453217
      ESP Fit Center  211 is at  -3.831687  1.107514  0.453217
      ESP Fit Center  212 is at  -4.007844  0.726756  0.453217
      ESP Fit Center  213 is at  -0.913233 -1.371443  0.453217
      ESP Fit Center  214 is at  -3.715341  0.918711  0.090155
      ESP Fit Center  215 is at  -2.162611 -1.022335  3.126542
      ESP Fit Center  216 is at  -1.878333 -1.443795  2.932481
      ESP Fit Center  217 is at  -3.938664  0.099896  2.671319
      ESP Fit Center  218 is at  -1.993827 -2.144566  2.671319
      ESP Fit Center  219 is at  -1.717048 -1.825146  2.671319
      ESP Fit Center  220 is at  -1.541472 -1.440687  2.671319
      ESP Fit Center  221 is at  -3.958136  0.414666  2.353093
      ESP Fit Center  222 is at  -4.273210  0.135534  2.353093
      ESP Fit Center  223 is at  -1.974356 -2.459336  2.353093
      ESP Fit Center  224 is at  -1.659282 -2.180204  2.353093
      ESP Fit Center  225 is at  -1.420163 -1.833782  2.353093
      ESP Fit Center  226 is at  -4.374784  0.311903  1.990030
      ESP Fit Center  227 is at  -4.628675 -0.022085  1.990030
      ESP Fit Center  228 is at  -4.804832 -0.402843  1.990030
      ESP Fit Center  229 is at  -2.447202 -2.891764  1.990030
      ESP Fit Center  230 is at  -2.057465 -2.736478  1.990030
      ESP Fit Center  231 is at  -1.710221 -2.501042  1.990030
      ESP Fit Center  232 is at  -1.421708 -2.196462  1.990030
      ESP Fit Center  233 is at  -1.205416 -1.836982  1.990030
      ESP Fit Center  234 is at  -4.226969  0.606385  1.596085
      ESP Fit Center  235 is at  -4.529021  0.319264  1.596085
      ESP Fit Center  236 is at  -4.767093 -0.022783  1.596085
      ESP Fit Center  237 is at  -4.931438 -0.405752  1.596085
      ESP Fit Center  238 is at  -5.015328 -0.813964  1.596085
      ESP Fit Center  239 is at  -5.015328 -1.230706  1.596085
      ESP Fit Center  240 is at  -3.070565 -3.079341  1.596085
      ESP Fit Center  241 is at  -2.654358 -3.058233  1.596085
      ESP Fit Center  242 is at  -2.250919 -2.953775  1.596085
      ESP Fit Center  243 is at  -1.876766 -2.770244  1.596085
      ESP Fit Center  244 is at  -1.547216 -2.515154  1.596085
      ESP Fit Center  245 is at  -1.275761 -2.198947  1.596085
      ESP Fit Center  246 is at  -1.073515 -1.834570  1.596085
      ESP Fit Center  247 is at  -4.451170  0.462589  1.186395
      ESP Fit Center  248 is at  -4.712332  0.144362  1.186395
      ESP Fit Center  249 is at  -4.906393 -0.218700  1.186395
      ESP Fit Center  250 is at  -5.025895 -0.612645  1.186395
      ESP Fit Center  251 is at  -5.066246 -1.022335  1.186395
      ESP Fit Center  252 is at  -5.025895 -1.432025  1.186395
      ESP Fit Center  253 is at  -4.906393 -1.825970  1.186395
      ESP Fit Center  254 is at  -1.799548 -2.768421  1.186395
      ESP Fit Center  255 is at  -1.481322 -2.507259  1.186395
      ESP Fit Center  256 is at  -1.220160 -2.189033  1.186395
      ESP Fit Center  257 is at  -1.026099 -1.825970  1.186395
      ESP Fit Center  258 is at  -4.226969  0.606385  0.776705
      ESP Fit Center  259 is at  -4.529021  0.319264  0.776705
      ESP Fit Center  260 is at  -4.767093 -0.022783  0.776705
      ESP Fit Center  261 is at  -4.931438 -0.405752  0.776705
      ESP Fit Center  262 is at  -5.015328 -0.813964  0.776705
      ESP Fit Center  263 is at  -1.275761 -2.198947  0.776705
      ESP Fit Center  264 is at  -1.073515 -1.834570  0.776705
      ESP Fit Center  265 is at  -4.055031  0.583503  0.382760
      ESP Fit Center  266 is at  -4.374784  0.311903  0.382760
      ESP Fit Center  267 is at  -4.628675 -0.022085  0.382760
      ESP Fit Center  268 is at  -3.958136  0.414666  0.019698
      ESP Fit Center  269 is at  -3.396802 -3.114058  1.449299
      ESP Fit Center  270 is at  -2.974148 -3.114058  1.449299
      ESP Fit Center  271 is at  -4.880823 -2.062114  1.131073
      ESP Fit Center  272 is at  -2.975007 -3.377603  1.131073
      ESP Fit Center  273 is at  -2.566304 -3.276867  1.131073
      ESP Fit Center  274 is at  -2.193585 -3.081249  1.131073
      ESP Fit Center  275 is at  -5.114249 -1.434481  0.768010
      ESP Fit Center  276 is at  -5.114249 -1.854015  0.768010
      ESP Fit Center  277 is at  -2.666431 -3.513677  0.768010
      ESP Fit Center  278 is at  -2.276694 -3.358391  0.768010
      ESP Fit Center  279 is at  -1.929450 -3.122955  0.768010
      ESP Fit Center  280 is at  -1.640937 -2.818375  0.768010
      ESP Fit Center  281 is at  -1.424645 -2.458895  0.768010
      ESP Fit Center  282 is at  -1.125826 -1.644248  0.374065
      ESP Fit Center  283 is at  -4.986322 -0.644696  0.374065
      ESP Fit Center  284 is at  -5.150667 -1.027665  0.374065
      ESP Fit Center  285 is at  -5.234557 -1.435877  0.374065
      ESP Fit Center  286 is at  -2.470148 -3.575688  0.374065
      ESP Fit Center  287 is at  -2.095995 -3.392157  0.374065
      ESP Fit Center  288 is at  -1.766445 -3.137067  0.374065
      ESP Fit Center  289 is at  -1.494990 -2.820860  0.374065
      ESP Fit Center  290 is at  -1.292744 -2.456483  0.374065
      ESP Fit Center  291 is at  -1.167987 -2.058852  0.374065
      ESP Fit Center  292 is at  -4.352172  0.101838 -0.035625
      ESP Fit Center  293 is at  -4.670399 -0.159324 -0.035625
      ESP Fit Center  294 is at  -4.931561 -0.477551 -0.035625
      ESP Fit Center  295 is at  -5.125622 -0.840613 -0.035625
      ESP Fit Center  296 is at  -5.245124 -1.234558 -0.035625
      ESP Fit Center  297 is at  -5.285475 -1.644248 -0.035625
      ESP Fit Center  298 is at  -2.381840 -3.584395 -0.035625
      ESP Fit Center  299 is at  -2.018777 -3.390334 -0.035625
      ESP Fit Center  300 is at  -1.700551 -3.129172 -0.035625
      ESP Fit Center  301 is at  -1.439389 -2.810946 -0.035625
      ESP Fit Center  302 is at  -1.245328 -2.447883 -0.035625
      ESP Fit Center  303 is at  -4.092532  0.204914 -0.445315
      ESP Fit Center  304 is at  -4.446198 -0.015528 -0.445315
      ESP Fit Center  305 is at  -4.748250 -0.302649 -0.445315
      ESP Fit Center  306 is at  -4.986322 -0.644696 -0.445315
      ESP Fit Center  307 is at  -5.150667 -1.027665 -0.445315
      ESP Fit Center  308 is at  -5.234557 -1.435877 -0.445315
      ESP Fit Center  309 is at  -2.470148 -3.575688 -0.445315
      ESP Fit Center  310 is at  -2.095995 -3.392157 -0.445315
      ESP Fit Center  311 is at  -1.766445 -3.137067 -0.445315
      ESP Fit Center  312 is at  -1.494990 -2.820860 -0.445315
      ESP Fit Center  313 is at  -4.594013 -0.310010 -0.839260
      ESP Fit Center  314 is at  -4.847904 -0.643998 -0.839260
      ESP Fit Center  315 is at  -5.024061 -1.024756 -0.839260
      ESP Fit Center  316 is at  -5.114249 -1.434481 -0.839260
      ESP Fit Center  317 is at  -2.666431 -3.513677 -0.839260
      ESP Fit Center  318 is at  -2.276694 -3.358391 -0.839260
      ESP Fit Center  319 is at  -1.929450 -3.122955 -0.839260
      ESP Fit Center  320 is at  -4.731557 -0.832801 -1.202322
      ESP Fit Center  321 is at  -4.880823 -1.226382 -1.202322
      ESP Fit Center  322 is at  -4.931561 -1.644248 -1.202322
      ESP Fit Center  323 is at  -2.566304 -3.276867 -1.202322
      ESP Fit Center  324 is at  -4.670399 -1.644248 -1.520549
      ESP Fit Center  325 is at  -4.610249 -2.062600 -1.520549
      ESP Fit Center  326 is at  -1.057794 -1.938725 -0.014742
      ESP Fit Center  327 is at  -1.347852 -2.605985 -0.377805
      ESP Fit Center  328 is at  -1.059339 -2.301405 -0.377805
      ESP Fit Center  329 is at  -0.843047 -1.941925 -0.377805
      ESP Fit Center  330 is at  -3.864600  0.501442 -0.771750
      ESP Fit Center  331 is at  -4.166652  0.214321 -0.771750
      ESP Fit Center  332 is at  -1.514397 -2.875187 -0.771750
      ESP Fit Center  333 is at  -1.184847 -2.620097 -0.771750
      ESP Fit Center  334 is at  -0.913392 -2.303890 -0.771750
      ESP Fit Center  335 is at  -0.711146 -1.939513 -0.771750
      ESP Fit Center  336 is at  -4.088801  0.357646 -1.181440
      ESP Fit Center  337 is at  -4.349963  0.039419 -1.181440
      ESP Fit Center  338 is at  -4.544024 -0.323643 -1.181440
      ESP Fit Center  339 is at  -2.194187 -3.186927 -1.181440
      ESP Fit Center  340 is at  -1.800242 -3.067425 -1.181440
      ESP Fit Center  341 is at  -1.437179 -2.873364 -1.181440
      ESP Fit Center  342 is at  -1.118953 -2.612202 -1.181440
      ESP Fit Center  343 is at  -0.857791 -2.293976 -1.181440
      ESP Fit Center  344 is at  -0.663730 -1.930913 -1.181440
      ESP Fit Center  345 is at  -3.864600  0.501442 -1.591130
      ESP Fit Center  346 is at  -4.166652  0.214321 -1.591130
      ESP Fit Center  347 is at  -4.404724 -0.127726 -1.591130
      ESP Fit Center  348 is at  -4.569069 -0.510695 -1.591130
      ESP Fit Center  349 is at  -4.652959 -0.918907 -1.591130
      ESP Fit Center  350 is at  -4.652959 -1.335649 -1.591130
      ESP Fit Center  351 is at  -2.291989 -3.163176 -1.591130
      ESP Fit Center  352 is at  -1.888550 -3.058718 -1.591130
      ESP Fit Center  353 is at  -1.514397 -2.875187 -1.591130
      ESP Fit Center  354 is at  -1.184847 -2.620097 -1.591130
      ESP Fit Center  355 is at  -0.913392 -2.303890 -1.591130
      ESP Fit Center  356 is at  -0.711146 -1.939513 -1.591130
      ESP Fit Center  357 is at  -3.692662  0.478560 -1.985075
      ESP Fit Center  358 is at  -4.012415  0.206960 -1.985075
      ESP Fit Center  359 is at  -4.266306 -0.127028 -1.985075
      ESP Fit Center  360 is at  -4.442463 -0.507786 -1.985075
      ESP Fit Center  361 is at  -4.532651 -0.917511 -1.985075
      ESP Fit Center  362 is at  -4.532651 -1.337045 -1.985075
      ESP Fit Center  363 is at  -4.442463 -1.746770 -1.985075
      ESP Fit Center  364 is at  -1.347852 -2.605985 -1.985075
      ESP Fit Center  365 is at  -1.059339 -2.301405 -1.985075
      ESP Fit Center  366 is at  -0.843047 -1.941925 -1.985075
      ESP Fit Center  367 is at  -3.595767  0.309723 -2.348137
      ESP Fit Center  368 is at  -3.910841  0.030591 -2.348137
      ESP Fit Center  369 is at  -4.149959 -0.315831 -2.348137
      ESP Fit Center  370 is at  -4.299225 -0.709412 -2.348137
      ESP Fit Center  371 is at  -1.057794 -1.938725 -2.348137
      ESP Fit Center  372 is at  -0.908529 -1.545144 -2.348137
      ESP Fit Center  373 is at  -3.220737  0.223457 -2.666364
      ESP Fit Center  374 is at  -3.576295 -0.005047 -2.666364
      ESP Fit Center  375 is at  -3.853075 -0.324467 -2.666364
      ESP Fit Center  376 is at  -1.179103 -1.545630 -2.666364
      ESP Fit Center  377 is at  -2.923159 -0.005119 -2.927526
      ESP Fit Center  378 is at  -3.306969 -0.196233 -2.927526
      ESP Fit Center  379 is at  -0.808064 -1.434306  0.055836
      ESP Fit Center  380 is at  -3.638540  0.622187 -0.307227
      ESP Fit Center  381 is at  -0.543929 -1.476011 -0.307227
      ESP Fit Center  382 is at  -0.255416 -1.171432 -0.307227
      ESP Fit Center  383 is at  -0.039124 -0.811952 -0.307227
      ESP Fit Center  384 is at  -3.600801  1.002247 -0.701172
      ESP Fit Center  385 is at  -3.765146  0.619278 -0.701172
      ESP Fit Center  386 is at  -0.380924 -1.490124 -0.701172
      ESP Fit Center  387 is at  -0.109469 -1.173917 -0.701172
      ESP Fit Center  388 is at  -2.966651  1.748781 -1.110862
      ESP Fit Center  389 is at  -3.284878  1.487619 -1.110862
      ESP Fit Center  390 is at  -3.546040  1.169392 -1.110862
      ESP Fit Center  391 is at  -3.740101  0.806330 -1.110862
      ESP Fit Center  392 is at  -0.315030 -1.482229 -1.110862
      ESP Fit Center  393 is at  -0.053868 -1.164003 -1.110862
      ESP Fit Center  394 is at  -1.904273  2.059700 -1.520552
      ESP Fit Center  395 is at  -2.316210  1.996594 -1.520552
      ESP Fit Center  396 is at  -2.707011  1.851857 -1.520552
      ESP Fit Center  397 is at  -3.060678  1.631415 -1.520552
      ESP Fit Center  398 is at  -3.362729  1.344294 -1.520552
      ESP Fit Center  399 is at  -3.600801  1.002247 -1.520552
      ESP Fit Center  400 is at  -3.765146  0.619278 -1.520552
      ESP Fit Center  401 is at  -0.380924 -1.490124 -1.520552
      ESP Fit Center  402 is at  -0.109469 -1.173917 -1.520552
      ESP Fit Center  403 is at  -2.113835  1.917283 -1.914497
      ESP Fit Center  404 is at  -2.518076  1.805046 -1.914497
      ESP Fit Center  405 is at  -2.888739  1.608533 -1.914497
      ESP Fit Center  406 is at  -3.208492  1.336933 -1.914497
      ESP Fit Center  407 is at  -3.462383  1.002945 -1.914497
      ESP Fit Center  408 is at  -3.638540  0.622187 -1.914497
      ESP Fit Center  409 is at  -0.543929 -1.476011 -1.914497
      ESP Fit Center  410 is at  -0.255416 -1.171432 -1.914497
      ESP Fit Center  411 is at  -0.039124 -0.811952 -1.914497
      ESP Fit Center  412 is at  -2.791844  1.439696 -2.277559
      ESP Fit Center  413 is at  -3.106918  1.160564 -2.277559
      ESP Fit Center  414 is at  -3.346037  0.814142 -2.277559
      ESP Fit Center  415 is at  -0.808064 -1.434306 -2.277559
      ESP Fit Center  416 is at  -0.492990 -1.155174 -2.277559
      ESP Fit Center  417 is at  -2.772373  1.124926 -2.595786
      ESP Fit Center  418 is at  -3.049152  0.805506 -2.595786
      ESP Fit Center  419 is at  -3.224728  0.421046 -2.595786
      ESP Fit Center  420 is at  -0.827535 -1.119536 -2.595786
      ESP Fit Center  421 is at  -2.791900  0.616882 -2.856948
      ESP Fit Center  422 is at  -2.946786  0.217075 -2.856948
      ESP Fit Center  423 is at   0.732093  1.852802  2.336270
      ESP Fit Center  424 is at   0.527248  2.207604  2.295919
      ESP Fit Center  425 is at   0.322403  1.852802  2.295919
      ESP Fit Center  426 is at   0.527248  1.498000  2.295919
      ESP Fit Center  427 is at   0.036124  2.254620  2.176417
      ESP Fit Center  428 is at   0.036124  1.450984  2.176417
      ESP Fit Center  429 is at   0.330275  1.156834  2.176417
      ESP Fit Center  430 is at   0.029001  2.783847  1.982356
      ESP Fit Center  431 is at   0.029001  0.921757  1.982356
      ESP Fit Center  432 is at   0.115233  0.502067  1.721194
      ESP Fit Center  433 is at   2.624824  2.665037 -0.173420
      ESP Fit Center  434 is at   2.492923  2.667449 -0.567365
      ESP Fit Center  435 is at   2.276631  3.026929 -0.567365
      ESP Fit Center  436 is at   1.988118  3.331509 -0.567365
      ESP Fit Center  437 is at   2.427441  2.270668 -0.930427
      ESP Fit Center  438 is at   2.278175  2.664249 -0.930427
      ESP Fit Center  439 is at   2.039057  3.010671 -0.930427
      ESP Fit Center  440 is at   1.723983  3.289803 -0.930427
      ESP Fit Center  441 is at   2.156867  2.271154 -1.248654
      ESP Fit Center  442 is at   1.981291  2.655613 -1.248654
      ESP Fit Center  443 is at   0.027996 -0.187201  1.275544
      ESP Fit Center  444 is at   2.830104  2.102953  0.912481
      ESP Fit Center  445 is at   0.165541 -0.709992  0.912481
      ESP Fit Center  446 is at   3.264564  1.800858  0.518536
      ESP Fit Center  447 is at   2.993109  2.117065  0.518536
      ESP Fit Center  448 is at   0.011304 -0.717353  0.518536
      ESP Fit Center  449 is at   0.313355 -1.004474  0.518536
      ESP Fit Center  450 is at   0.667022 -1.224916  0.518536
      ESP Fit Center  451 is at   3.514226  1.427881  0.108846
      ESP Fit Center  452 is at   3.320165  1.790944  0.108846
      ESP Fit Center  453 is at   3.059003  2.109170  0.108846
      ESP Fit Center  454 is at   0.089155 -0.860678  0.108846
      ESP Fit Center  455 is at   0.407382 -1.121840  0.108846
      ESP Fit Center  456 is at   3.633728  0.624246 -0.300844
      ESP Fit Center  457 is at   3.591567  1.038850 -0.300844
      ESP Fit Center  458 is at   3.466810  1.436481 -0.300844
      ESP Fit Center  459 is at   3.264564  1.800858 -0.300844
      ESP Fit Center  460 is at   2.993109  2.117065 -0.300844
      ESP Fit Center  461 is at   3.334909  1.438893 -0.694789
      ESP Fit Center  462 is at   3.118617  1.798373 -0.694789
      ESP Fit Center  463 is at   2.830104  2.102953 -0.694789
      ESP Fit Center  464 is at   2.565969  2.061247 -1.057851
      ESP Fit Center  465 is at   0.806675 -1.435224  0.055616
      ESP Fit Center  466 is at   0.136136 -0.998473 -0.307447
      ESP Fit Center  467 is at   0.390027 -1.332461 -0.307447
      ESP Fit Center  468 is at   0.709780 -1.604061 -0.307447
      ESP Fit Center  469 is at   3.691296  0.814012 -0.701392
      ESP Fit Center  470 is at   3.489050  1.178389 -0.701392
      ESP Fit Center  471 is at   0.235790 -1.339822 -0.701392
      ESP Fit Center  472 is at   0.537841 -1.626943 -0.701392
      ESP Fit Center  473 is at   3.738712  0.805412 -1.111082
      ESP Fit Center  474 is at   3.544651  1.168475 -1.111082
      ESP Fit Center  475 is at   3.283489  1.486701 -1.111082
      ESP Fit Center  476 is at   2.965263  1.747863 -1.111082
      ESP Fit Center  477 is at   0.052479 -1.164920 -1.111082
      ESP Fit Center  478 is at   0.313641 -1.483147 -1.111082
      ESP Fit Center  479 is at   3.691296  0.814012 -1.520772
      ESP Fit Center  480 is at   3.489050  1.178389 -1.520772
      ESP Fit Center  481 is at   3.217595  1.494596 -1.520772
      ESP Fit Center  482 is at   2.888045  1.749687 -1.520772
      ESP Fit Center  483 is at   2.513892  1.933217 -1.520772
      ESP Fit Center  484 is at   2.110453  2.037675 -1.520772
      ESP Fit Center  485 is at   0.235790 -1.339822 -1.520772
      ESP Fit Center  486 is at   0.537841 -1.626943 -1.520772
      ESP Fit Center  487 is at   3.559395  0.816424 -1.914717
      ESP Fit Center  488 is at   3.343103  1.175904 -1.914717
      ESP Fit Center  489 is at   3.054590  1.480484 -1.914717
      ESP Fit Center  490 is at   2.707346  1.715920 -1.914717
      ESP Fit Center  491 is at   2.317609  1.871206 -1.914717
      ESP Fit Center  492 is at   0.136136 -0.998473 -1.914717
      ESP Fit Center  493 is at   0.390027 -1.332461 -1.914717
      ESP Fit Center  494 is at   3.344648  0.813224 -2.277779
      ESP Fit Center  495 is at   3.105529  1.159646 -2.277779
      ESP Fit Center  496 is at   2.790455  1.438778 -2.277779
      ESP Fit Center  497 is at   0.491601 -1.156092 -2.277779
      ESP Fit Center  498 is at   0.806675 -1.435224 -2.277779
      ESP Fit Center  499 is at   3.223339  0.420129 -2.596006
      ESP Fit Center  500 is at   3.047763  0.804588 -2.596006
      ESP Fit Center  501 is at   2.770984  1.124008 -2.596006
      ESP Fit Center  502 is at   0.826146 -1.120454 -2.596006
      ESP Fit Center  503 is at   2.886478  0.423237 -2.857168
      ESP Fit Center  504 is at   1.056349 -1.939666 -0.015129
      ESP Fit Center  505 is at   3.858456  0.350488 -0.378192
      ESP Fit Center  506 is at   0.763845 -1.747711 -0.378192
      ESP Fit Center  507 is at   0.940002 -2.128469 -0.378192
      ESP Fit Center  508 is at   1.193893 -2.462457 -0.378192
      ESP Fit Center  509 is at   4.292916  0.048393 -0.772137
      ESP Fit Center  510 is at   4.021461  0.364600 -0.772137
      ESP Fit Center  511 is at   0.637239 -1.744802 -0.772137
      ESP Fit Center  512 is at   0.801584 -2.127771 -0.772137
[...]
 6830 Fit       0.001311
 6831 Fit       0.002680
 6832 Fit       0.003850
 6833 Fit       0.004683
 6834 Fit       0.005097
 6835 Fit       0.005077
 6836 Fit       0.004669
 6837 Fit       0.003970
 6838 Fit       0.003104
 6839 Fit       0.002213
 6840 Fit       0.001446
 6841 Fit       0.000952
 6842 Fit       0.001954
 6843 Fit       0.001877
 6844 Fit       0.001747
 6845 Fit       0.001226
 6846 Fit       0.000394
 6847 Fit      -0.000228
 6848 Fit      -0.000246
 6849 Fit       0.000366
 6850 Fit       0.001410
 6851 Fit       0.002615
 6852 Fit       0.003717
 6853 Fit       0.004502
 6854 Fit       0.004847
 6855 Fit       0.004735
 6856 Fit       0.004252
 6857 Fit       0.003552
 6858 Fit       0.002826
 6859 Fit       0.002255
 6860 Fit       0.002672
 6861 Fit       0.002306
 6862 Fit       0.001835
 6863 Fit       0.001347
 6864 Fit       0.001335
 6865 Fit       0.001996
 6866 Fit       0.003036
 6867 Fit       0.003977
 6868 Fit       0.004447
 6869 Fit       0.004336
 6870 Fit       0.003807
 6871 Fit       0.003168
 6872 Fit       0.003100
 6873 Fit       0.002569
 6874 Fit       0.002501
 6875 Fit       0.003263
 6876 Fit       0.003925
 6877 Fit       0.003720
 6878 Fit       0.003289
 6879 Fit      -0.022103
 6880 Fit      -0.020204
 6881 Fit      -0.017069
 6882 Fit      -0.014952
 6883 Fit      -0.021530
 6884 Fit      -0.018806
 6885 Fit      -0.016004
 6886 Fit      -0.013686
 6887 Fit      -0.011954
 6888 Fit      -0.010620
 6889 Fit      -0.002868
 6890 Fit      -0.010942
 6891 Fit      -0.014391
 6892 Fit      -0.016004
 6893 Fit      -0.015724
 6894 Fit      -0.014235
 6895 Fit      -0.012353
 6896 Fit      -0.010586
 6897 Fit      -0.009044
 6898 Fit      -0.007555
 6899 Fit      -0.005800
 6900 Fit       0.000224
 6901 Fit      -0.001071
 6902 Fit      -0.001579
 6903 Fit      -0.001614
 6904 Fit      -0.003868
 6905 Fit      -0.006470
 6906 Fit      -0.009220
 6907 Fit      -0.010927
 6908 Fit      -0.011117
 6909 Fit      -0.010176
 6910 Fit      -0.008750
 6911 Fit      -0.007211
 6912 Fit      -0.005554
 6913 Fit      -0.003593
 6914 Fit      -0.001293
 6915 Fit       0.001481
 6916 Fit       0.000331
 6917 Fit      -0.000706
 6918 Fit      -0.001431
 6919 Fit      -0.002256
 6920 Fit      -0.003687
 6921 Fit      -0.005851
 6922 Fit      -0.007441
 6923 Fit      -0.007584
 6924 Fit      -0.006563
 6925 Fit      -0.004967
 6926 Fit      -0.003037
 6927 Fit      -0.001080
 6928 Fit       0.000062
 6929 Fit      -0.000096
 6930 Fit      -0.000951
 6931 Fit      -0.002047
 6932 Fit      -0.003330
 6933 Fit      -0.004920
 6934 Fit      -0.004637
 6935 Fit      -0.002885
 6936 Fit      -0.001453
 6937 Fit      -0.001763
 6938 Fit      -0.003018
 6939 Fit       0.022017
 6940 Fit       0.020022
 6941 Fit       0.020471
 6942 Fit       0.022086
 6943 Fit       0.018775
 6944 Fit       0.018172
 6945 Fit       0.018442
 6946 Fit       0.019414
 6947 Fit       0.020874
 6948 Fit       0.017192
 6949 Fit       0.016546
 6950 Fit       0.016440
 6951 Fit       0.016718
 6952 Fit       0.017397
 6953 Fit       0.018544
 6954 Fit       0.020127
 6955 Fit       0.015004
 6956 Fit       0.014673
 6957 Fit       0.014642
 6958 Fit       0.014792
 6959 Fit       0.015125
 6960 Fit       0.015720
 6961 Fit       0.016709
 6962 Fit       0.018224
 6963 Fit       0.020283
 6964 Fit       0.012342
 6965 Fit       0.012489
 6966 Fit       0.012696
 6967 Fit       0.012920
 6968 Fit       0.013175
 6969 Fit       0.013529
 6970 Fit       0.014095
 6971 Fit       0.015036
 6972 Fit       0.016561
 6973 Fit       0.009378
 6974 Fit       0.010038
 6975 Fit       0.010534
 6976 Fit       0.010899
 6977 Fit       0.011176
 6978 Fit       0.011422
 6979 Fit       0.011721
 6980 Fit       0.012192
 6981 Fit       0.013004
 6982 Fit       0.014395
 6983 Fit       0.006325
 6984 Fit       0.007475
 6985 Fit       0.008255
 6986 Fit       0.008770
 6987 Fit       0.009097
 6988 Fit       0.009307
 6989 Fit       0.009480
 6990 Fit       0.009723
 6991 Fit       0.010190
 6992 Fit       0.011108
 6993 Fit       0.012825
 6994 Fit       0.003254
 6995 Fit       0.004790
 6996 Fit       0.005800
 6997 Fit       0.006437
 6998 Fit       0.006803
 6999 Fit       0.006973
 7000 Fit       0.007023
 7001 Fit       0.007040
 7002 Fit       0.007146
 7003 Fit       0.007519
 7004 Fit       0.008441
 7005 Fit       0.000274
 7006 Fit       0.002073
 7007 Fit       0.003230
 7008 Fit       0.003928
 7009 Fit       0.004281
 7010 Fit       0.004370
 7011 Fit       0.004265
 7012 Fit       0.004041
 7013 Fit       0.003797
 7014 Fit       0.003680
 7015 Fit       0.003922
 7016 Fit       0.004916
 7017 Fit      -0.002525
 7018 Fit      -0.000583
 7019 Fit       0.000606
 7020 Fit       0.001244
 7021 Fit       0.001457
 7022 Fit       0.001325
 7023 Fit       0.000916
 7024 Fit       0.000295
 7025 Fit      -0.000449
 7026 Fit      -0.001175
 7027 Fit      -0.001642
 7028 Fit      -0.003308
 7029 Fit      -0.002240
 7030 Fit      -0.001820
 7031 Fit      -0.001929
 7032 Fit      -0.002498
 7033 Fit      -0.003486
 7034 Fit      -0.004859
 7035 Fit      -0.006570
 7036 Fit      -0.005559
 7037 Fit      -0.005541
 7038 Fit      -0.006189
 7039 Fit      -0.007484
 7040 Fit      -0.009462
 7041 Fit      -0.020229
 7042 Fit      -0.015931
 7043 Fit      -0.018540
 7044 Fit      -0.022204
 7045 Fit      -0.011287
 7046 Fit      -0.012785
 7047 Fit      -0.014800
 7048 Fit      -0.017397
 7049 Fit      -0.020260
 7050 Fit      -0.002769
 7051 Fit      -0.002702
 7052 Fit      -0.006759
 7053 Fit      -0.008338
 7054 Fit      -0.009819
 7055 Fit      -0.011465
 7056 Fit      -0.013324
 7057 Fit      -0.015094
 7058 Fit      -0.016078
 7059 Fit      -0.015452
 7060 Fit      -0.012839
 7061 Fit      -0.001623
 7062 Fit      -0.001412
 7063 Fit      -0.000528
 7064 Fit      -0.003614
 7065 Fit      -0.005577
 7066 Fit      -0.007233
 7067 Fit      -0.008770
 7068 Fit      -0.010193
 7069 Fit      -0.011129
 7070 Fit      -0.010930
 7071 Fit      -0.009216
 7072 Fit      -0.006463
 7073 Fit      -0.003862
 7074 Fit      -0.002254
 7075 Fit      -0.001431
 7076 Fit      -0.000707
 7077 Fit       0.000329
 7078 Fit       0.001476
 7079 Fit      -0.001311
 7080 Fit      -0.003053
 7081 Fit      -0.004985
 7082 Fit      -0.006579
 7083 Fit      -0.007596
 7084 Fit      -0.007446
 7085 Fit      -0.005851
 7086 Fit      -0.003686
 7087 Fit      -0.002048
 7088 Fit      -0.000954
 7089 Fit      -0.000102
 7090 Fit       0.000053
 7091 Fit      -0.001094
 7092 Fit      -0.002897
 7093 Fit      -0.004648
 7094 Fit      -0.004927
 7095 Fit      -0.003333
 7096 Fit      -0.001768
 7097 Fit      -0.001461
 7098 Fit      -0.003026
 7099 Fit      -0.000369
 7100 Fit       0.002022
 7101 Fit       0.004190
 7102 Fit       0.005987
 7103 Fit      -0.003775
 7104 Fit      -0.001636
 7105 Fit       0.000410
 7106 Fit       0.002309
 7107 Fit       0.003981
 7108 Fit       0.005316
 7109 Fit       0.006176
 7110 Fit       0.006419
 7111 Fit       0.005946
 7112 Fit       0.004743
 7113 Fit       0.002895
 7114 Fit      -0.000835
 7115 Fit      -0.004408
 7116 Fit      -0.002722
 7117 Fit      -0.000985
 7118 Fit       0.000719
 7119 Fit       0.002316
 7120 Fit       0.003727
 7121 Fit       0.004856
 7122 Fit       0.005599
 7123 Fit       0.005852
 7124 Fit       0.005539
 7125 Fit       0.004640
 7126 Fit       0.003203
 7127 Fit       0.001332
 7128 Fit       0.000269
 7129 Fit      -0.001640
 7130 Fit      -0.003558
 7131 Fit      -0.003417
 7132 Fit      -0.002629
 7133 Fit      -0.001508
 7134 Fit      -0.000209
 7135 Fit       0.001150
 7136 Fit       0.002470
 7137 Fit       0.003659
 7138 Fit       0.004629
 7139 Fit       0.005287
 7140 Fit       0.005549
 7141 Fit       0.005352
 7142 Fit       0.004674
 7143 Fit       0.003544
 7144 Fit       0.002039
 7145 Fit       0.001215
 7146 Fit      -0.000441
 7147 Fit      -0.002073
 7148 Fit      -0.003518
 7149 Fit      -0.000593
 7150 Fit      -0.000965
 7151 Fit      -0.000734
 7152 Fit      -0.000055
 7153 Fit       0.000908
 7154 Fit       0.002006
 7155 Fit       0.003108
 7156 Fit       0.004093
 7157 Fit       0.004851
 7158 Fit       0.005281
 7159 Fit       0.005301
 7160 Fit       0.004870
 7161 Fit       0.003995
 7162 Fit       0.002740
 7163 Fit       0.001996
 7164 Fit       0.000589
 7165 Fit      -0.000747
 7166 Fit      -0.001805
 7167 Fit      -0.002368
 7168 Fit      -0.002232
 7169 Fit       0.001352
 7170 Fit       0.000939
 7171 Fit       0.000846
 7172 Fit       0.001159
 7173 Fit       0.001807
 7174 Fit       0.002654
 7175 Fit       0.003550
 7176 Fit       0.004348
 7177 Fit       0.004914
 7178 Fit       0.005135
 7179 Fit       0.004939
 7180 Fit       0.004307
 7181 Fit       0.003289
 7182 Fit       0.002603
 7183 Fit       0.001395
 7184 Fit       0.000349
 7185 Fit      -0.000264
 7186 Fit      -0.000246
 7187 Fit       0.000379
 7188 Fit       0.001214
 7189 Fit       0.001739
 7190 Fit       0.001874
 7191 Fit       0.001953
 7192 Fit       0.002255
 7193 Fit       0.002826
 7194 Fit       0.003552
 7195 Fit       0.004250
 7196 Fit       0.004732
 7197 Fit       0.004842
 7198 Fit       0.004495
 7199 Fit       0.003707
 7200 Fit       0.003025
 7201 Fit       0.001983
 7202 Fit       0.001321
 7203 Fit       0.001334
 7204 Fit       0.001825
 7205 Fit       0.002300
 7206 Fit       0.002669
 7207 Fit       0.003165
 7208 Fit       0.003804
 7209 Fit       0.004332
 7210 Fit       0.004441
 7211 Fit       0.003968
 7212 Fit       0.003254
 7213 Fit       0.002491
 7214 Fit       0.002561
 7215 Fit       0.003095
 7216 Fit       0.003715
 7217 Fit       0.003918
 7218 Fit       0.003281
 7219 Fit       0.005500
 7220 Fit       0.007177
 7221 Fit       0.008296
 7222 Fit       0.008912
 7223 Fit       0.009076
 7224 Fit       0.008840
 7225 Fit       0.006218
 7226 Fit       0.002634
 7227 Fit       0.004864
 7228 Fit       0.006500
 7229 Fit       0.007603
 7230 Fit       0.008217
 7231 Fit       0.008373
 7232 Fit       0.008090
 7233 Fit       0.007376
 7234 Fit       0.004800
 7235 Fit       0.002502
 7236 Fit       0.004582
 7237 Fit       0.006132
 7238 Fit       0.007206
 7239 Fit       0.007839
 7240 Fit       0.008054
 7241 Fit       0.007863
 7242 Fit       0.007269
 7243 Fit       0.006259
 7244 Fit       0.003790
 7245 Fit       0.001200
 7246 Fit       0.003518
 7247 Fit       0.005287
 7248 Fit       0.006569
 7249 Fit       0.007406
 7250 Fit       0.007825
 7251 Fit       0.007841
 7252 Fit       0.007458
 7253 Fit       0.006672
 7254 Fit       0.005463
 7255 Fit       0.003053
 7256 Fit       0.000762
 7257 Fit       0.000057
 7258 Fit       0.002532
 7259 Fit       0.004458
 7260 Fit       0.005904
 7261 Fit       0.006917
 7262 Fit       0.007527
 7263 Fit       0.007752
 7264 Fit       0.007600
 7265 Fit       0.007070
 7266 Fit       0.006154
 7267 Fit       0.004828
 7268 Fit       0.002508
 7269 Fit       0.000174
 7270 Fit      -0.001844
 7271 Fit       0.000956
 7272 Fit       0.003168
 7273 Fit       0.004878
 7274 Fit       0.006145
 7275 Fit       0.007007
 7276 Fit       0.007487
 7277 Fit       0.007600
 7278 Fit       0.007350
 7279 Fit       0.006733
 7280 Fit       0.005739
 7281 Fit       0.004343
 7282 Fit       0.002115
 7283 Fit      -0.000319
 7284 Fit       0.000429
 7285 Fit       0.002753
 7286 Fit       0.004546
 7287 Fit       0.005874
 7288 Fit       0.006779
 7289 Fit       0.007286
 7290 Fit       0.007409
 7291 Fit       0.007154
 7292 Fit       0.006515
 7293 Fit       0.005481
 7294 Fit       0.004028
 7295 Fit       0.001864
 7296 Fit      -0.000662
 7297 Fit      -0.000788
 7298 Fit       0.001817
 7299 Fit       0.003826
 7300 Fit       0.005325
 7301 Fit       0.006365
 7302 Fit       0.006978
 7303 Fit       0.007179
 7304 Fit       0.006974
 7305 Fit       0.006359
 7306 Fit       0.005322
 7307 Fit       0.003837
 7308 Fit       0.001779
 7309 Fit       0.001078
 7310 Fit       0.003207
 7311 Fit       0.004812
 7312 Fit       0.005947
 7313 Fit       0.006644
 7314 Fit       0.006918
 7315 Fit       0.006774
 7316 Fit       0.006206
 7317 Fit       0.005203
 7318 Fit       0.003740
 7319 Fit       0.001922
 7320 Fit       0.003664
 7321 Fit       0.005124
 7322 Fit       0.006107
 7323 Fit       0.006623
 7324 Fit       0.006671
 7325 Fit       0.006245
 7326 Fit       0.005329
 7327 Fit       0.003901
 7328 Fit       0.002410
 7329 Fit       0.004630
 7330 Fit       0.005721
 7331 Fit       0.006412
 7332 Fit       0.006648
 7333 Fit       0.006393
 7334 Fit       0.005618
 7335 Fit       0.004300
 7336 Fit       0.006969
 7337 Fit       0.006881
 7338 Fit       0.006298
 7339 Fit       0.005153
 7340 Fit       0.010854
 7341 Fit       0.010837
 7342 Fit       0.011284
 7343 Fit       0.011448
 7344 Fit       0.010578
 7345 Fit       0.010107
 7346 Fit       0.010455
 7347 Fit       0.010573
 7348 Fit       0.010782
 7349 Fit       0.011355
 7350 Fit       0.012169
 7351 Fit       0.012415
 7352 Fit       0.011430
 7353 Fit       0.009932
 7354 Fit       0.009053
 7355 Fit       0.009073
 7356 Fit       0.009600
 7357 Fit       0.010146
 7358 Fit       0.010453
 7359 Fit       0.010086
 7360 Fit       0.010037
 7361 Fit       0.010275
 7362 Fit       0.010999
 7363 Fit       0.012234
 7364 Fit       0.013574
 7365 Fit       0.010818
 7366 Fit       0.008782
 7367 Fit       0.007596
 7368 Fit       0.007345
 7369 Fit       0.007771
 7370 Fit       0.008523
 7371 Fit       0.009293
 7372 Fit       0.009868
 7373 Fit       0.010160
 7374 Fit       0.010191
 7375 Fit       0.009388
 7376 Fit       0.009106
 7377 Fit       0.009033
 7378 Fit       0.009375
 7379 Fit       0.010338
 7380 Fit       0.012058
 7381 Fit       0.005162
 7382 Fit       0.005223
 7383 Fit       0.005903
 7384 Fit       0.006895
 7385 Fit       0.007944
 7386 Fit       0.008858
 7387 Fit       0.009513
 7388 Fit       0.009854
 7389 Fit       0.009894
 7390 Fit       0.009700
 7391 Fit       0.008489
 7392 Fit       0.007967
 7393 Fit       0.007600
 7394 Fit       0.007565
 7395 Fit       0.008079
 7396 Fit       0.009407
 7397 Fit       0.002299
 7398 Fit       0.003161
 7399 Fit       0.004408
 7400 Fit       0.005790
 7401 Fit       0.007112
 7402 Fit       0.008228
 7403 Fit       0.009039
 7404 Fit       0.009500
 7405 Fit       0.009614
 7406 Fit       0.009427
 7407 Fit       0.009017
 7408 Fit       0.007393
 7409 Fit       0.006633
 7410 Fit       0.005974
 7411 Fit       0.005552
 7412 Fit       0.005540
 7413 Fit       0.001219
 7414 Fit       0.002952
 7415 Fit       0.004680
 7416 Fit       0.006258
 7417 Fit       0.007573
 7418 Fit       0.008545
 7419 Fit       0.009134
 7420 Fit       0.009340
 7421 Fit       0.009199
 7422 Fit       0.008772
 7423 Fit       0.008139
 7424 Fit       0.006103
 7425 Fit       0.005045
 7426 Fit       0.004057
 7427 Fit       0.003258
 7428 Fit       0.002364
 7429 Fit       0.004456
 7430 Fit       0.006253
 7431 Fit       0.007657
 7432 Fit       0.008604
 7433 Fit       0.009074
 7434 Fit       0.009092
 7435 Fit       0.008718
 7436 Fit       0.008034
 7437 Fit       0.007132
 7438 Fit       0.004619
 7439 Fit       0.003233
 7440 Fit       0.001889
 7441 Fit       0.004624
 7442 Fit       0.006579
 7443 Fit       0.008004
 7444 Fit       0.008848
 7445 Fit       0.009115
 7446 Fit       0.008863
 7447 Fit       0.008184
 7448 Fit       0.007184
 7449 Fit       0.005964
 7450 Fit       0.002927
 7451 Fit       0.006996
 7452 Fit       0.008572
 7453 Fit       0.009369
 7454 Fit       0.009417
 7455 Fit       0.008825
 7456 Fit       0.007745
 7457 Fit       0.006323
 7458 Fit       0.004684
 7459 Fit       0.014282
 7460 Fit       0.014018
 7461 Fit       0.014687
 7462 Fit       0.015125
 7463 Fit       0.014443
 7464 Fit       0.013517
 7465 Fit       0.013590
 7466 Fit       0.013599
 7467 Fit       0.013994
 7468 Fit       0.014792
 7469 Fit       0.015650
 7470 Fit       0.016077
 7471 Fit       0.015715
 7472 Fit       0.014553
 7473 Fit       0.013130
 7474 Fit       0.012314
 7475 Fit       0.012495
 7476 Fit       0.013144
 7477 Fit       0.013490
 7478 Fit       0.012958
 7479 Fit       0.013056
 7480 Fit       0.013666
 7481 Fit       0.014642
 7482 Fit       0.015731
 7483 Fit       0.016645
 7484 Fit       0.017132
 7485 Fit       0.017012
 7486 Fit       0.016179
 7487 Fit       0.014667
 7488 Fit       0.012821
 7489 Fit       0.011266
 7490 Fit       0.010564
 7491 Fit       0.010910
 7492 Fit       0.012013
 7493 Fit       0.013122
 7494 Fit       0.013526
 7495 Fit       0.013269
 7496 Fit       0.011995
 7497 Fit       0.011827
 7498 Fit       0.012286
 7499 Fit       0.013239
 7500 Fit       0.014498
 7501 Fit       0.015850
 7502 Fit       0.017074
 7503 Fit       0.017971
 7504 Fit       0.018400
 7505 Fit       0.018268
 7506 Fit       0.017471
 7507 Fit       0.015906
 7508 Fit       0.013669
 7509 Fit       0.011230
 7510 Fit       0.009244
 7511 Fit       0.008207
 7512 Fit       0.008348
 7513 Fit       0.012785
 7514 Fit       0.010563
 7515 Fit       0.010169
 7516 Fit       0.010551
 7517 Fit       0.011528
 7518 Fit       0.012924
 7519 Fit       0.014564
 7520 Fit       0.016255
 7521 Fit       0.017787
 7522 Fit       0.018972
 7523 Fit       0.019689
 7524 Fit       0.019901
 7525 Fit       0.019564
 7526 Fit       0.018524
 7527 Fit       0.016537
 7528 Fit       0.013596
 7529 Fit       0.010258
 7530 Fit       0.007351
 7531 Fit       0.008306
 7532 Fit       0.009329
 7533 Fit       0.010837
 7534 Fit       0.012691
 7535 Fit       0.014750
 7536 Fit       0.016837
 7537 Fit       0.018734
 7538 Fit       0.020221
 7539 Fit       0.021170
 7540 Fit       0.021597
 7541 Fit       0.021576
 7542 Fit       0.021086
 7543 Fit       0.019853
 7544 Fit       0.009000
 7545 Fit       0.006840
 7546 Fit       0.008677
 7547 Fit       0.010941
 7548 Fit       0.013530
 7549 Fit       0.016299
 7550 Fit       0.019006
 7551 Fit       0.008670
 7552 Fit       0.011831
 7553 Fit       0.015396
 -----------------------------------------------------------------
 Leave Link  602 at Mon Feb  5 11:10:08 2024, MaxMem=   104857600 cpu:               1.0 elap:               1.1

 Test job not archived.
 1\1\GINC-TERPSICHORE\SP\RHF\6-31G(d)\C14H12O1\MASTER9\05-Feb-2024\0\\#
 HF/6-31G* scrf=smd SCF=tight Test Pop=MK iop(6/33=2) iop(6/42=6) # iop
 (6/50=1)\\calc RESP charges\\0,1\O,0,-0.000063,2.281362,-0.894122\C,0,
 -0.731976,1.852848,0.236439\C,0,-1.574024,0.624306,0.109228\C,0,-2.169
 258,0.107264,1.256852\C,0,-2.966246,-1.022335,1.186395\C,0,-3.185475,-
 1.644248,-0.035625\C,0,-2.603877,-1.127278,-1.18144\C,0,-1.799954,0.00
 2695,-1.110862\C,0,0.732093,1.852802,0.23627\C,0,1.574079,0.624246,0.1
 08846\C,0,1.798565,0.001777,-1.111082\C,0,2.602431,-1.128219,-1.181827
 \C,0,3.185396,-1.644392,-0.036342\C,0,2.967603,-1.021639,1.185501\C,0,
 2.170698,0.108015,1.256113\H,0,-1.2053,2.661807,0.767186\H,0,-2.007754
 ,0.590156,2.205093\H,0,-3.416931,-1.41505,2.080177\H,0,-3.806846,-2.51
 9949,-0.091977\H,0,-2.77438,-1.599419,-2.132458\H,0,-1.358596,0.399794
 ,-2.00524\H,0,1.205579,2.661726,0.766922\H,0,1.356158,0.398251,-2.0052
 15\H,0,2.771828,-1.601006,-2.132722\H,0,3.80672,-2.520117,-0.092829\H,
 0,3.419357,-1.413718,2.079022\H,0,2.010336,0.591573,2.204207\\Version=
 EM64L-G16RevC.01\State=1-A\HF=-611.9833887\RMSD=6.280e-09\Dipole=0.000
 0672,-0.4763036,1.0670977\Quadrupole=-1.2907441,-2.0030191,3.2937632,0
 .0016309,0.0072262,6.278252\PG=C01 [X(C14H12O1)]\\@


 GETTING A SIMPLE ANSWER FROM A PROFESSOR IS LIKE
 GETTING A THIMBLE OF WATER FROM A FIRE HYDRANT.
     -- PROF. LEN SHAPIRO, NDSU
 Job cpu time:       0 days  0 hours  2 minutes  6.5 seconds.
 Elapsed time:       0 days  0 hours  2 minutes  6.9 seconds.
 File lengths (MBytes):  RWF=    113 Int=      0 D2E=      0 Chk=      6 Scr=      1
 Normal termination of Gaussian 16 at Mon Feb  5 11:10:08 2024.
